       N       E                     dE             d eps       ncg     rms          rms(c)
DAV:   1     0.767896096797E+03    0.76790E+03   -0.47502E+04363856   0.126E+03
DAV:   2    -0.177550022826E+03   -0.94545E+03   -0.92232E+03449200   0.311E+02
DAV:   3    -0.296515802899E+03   -0.11897E+03   -0.11828E+03412032   0.137E+02
DAV:   4    -0.301355461786E+03   -0.48397E+01   -0.48211E+01455408   0.341E+01
DAV:   5    -0.301523285517E+03   -0.16782E+00   -0.16772E+00464920   0.549E+00    0.998E+00
RMM:   6    -0.270515364665E+03    0.31008E+02   -0.80763E+00416007   0.151E+01    0.732E+00
RMM:   7    -0.270527803778E+03   -0.12439E-01   -0.43908E+00408751   0.581E+00    0.466E+00
RMM:   8    -0.270553396857E+03   -0.25593E-01   -0.29906E-01495186   0.261E+00    0.204E+00
RMM:   9    -0.270582819354E+03   -0.29422E-01   -0.10036E-01474516   0.148E+00    0.419E-01
RMM:  10    -0.270584797487E+03   -0.19781E-02   -0.40061E-02545874   0.761E-01    0.283E-01
RMM:  11    -0.270585042352E+03   -0.24487E-03   -0.59979E-03473943   0.348E-01    0.107E-01
RMM:  12    -0.270585274046E+03   -0.23169E-03   -0.12760E-03470674   0.171E-01    0.211E-02
RMM:  13    -0.270585299505E+03   -0.25459E-04   -0.37617E-04333108   0.864E-02
   1 F= -.27058530E+03 E0= -.27058530E+03  d E =-.411795E-10
