       N       E                     dE             d eps       ncg     rms          rms(c)
DAV:   1     0.395950507115E+04    0.39595E+04   -0.20599E+05******   0.943E+02
DAV:   2    -0.180253051762E+03   -0.41398E+04   -0.39918E+04******   0.268E+02
DAV:   3    -0.630088820340E+03   -0.44984E+03   -0.42800E+03******   0.979E+01
DAV:   4    -0.652977364261E+03   -0.22889E+02   -0.22542E+02******   0.215E+01
DAV:   5    -0.654024958961E+03   -0.10476E+01   -0.10441E+01******   0.427E+00    0.108E+00
RMM:   6    -0.653056084532E+03    0.96887E+00   -0.32719E-01******   0.107E+00    0.878E-01
RMM:   7    -0.653060180308E+03   -0.40958E-02   -0.14366E-01******   0.411E-01    0.573E-01
RMM:   8    -0.653058895879E+03    0.12844E-02   -0.26952E-02******   0.156E-01    0.503E-01
RMM:   9    -0.653053122657E+03    0.57732E-02   -0.11239E-02******   0.144E-01    0.330E-01
RMM:  10    -0.653049958250E+03    0.31644E-02   -0.19154E-02******   0.130E-01    0.143E-01
RMM:  11    -0.653050377148E+03   -0.41890E-03   -0.49802E-03******   0.770E-02    0.142E-01
RMM:  12    -0.653050289145E+03    0.88003E-04   -0.97655E-04******   0.318E-02
   1 F= -.65305029E+03 E0= -.65298212E+03  d E =-.136341E+00
