    9    9    1    1
  0.3663242E+02  0.7754272E-09  0.7754272E-09  0.7754272E-09  0.5000000E-16
  1.000000000000000E-004
  CAR 
 mip                                     
     74    897     44
 
  0.0000000E+00  0.0000000E+00  0.0000000E+00  0.3051758E-04
      1        -21.937076   1.000000
      2        -21.937076   1.000000
      3        -21.823343   1.000000
      4        -21.823343   1.000000
      5        -21.823327   1.000000
      6        -20.451845   1.000000
      7        -20.441181   1.000000
      8        -14.701620   1.000000
      9        -14.054028   1.000000
     10        -14.054026   1.000000
     11        -14.054027   1.000000
     12        -13.697189   1.000000
     13        -13.697190   1.000000
     14         -6.998523   1.000000
     15         -6.998523   1.000000
     16         -6.998522   1.000000
     17         -6.916447   1.000000
     18         -6.909050   1.000000
     19         -6.909050   1.000000
     20         -6.909049   1.000000
     21         -3.495139   1.000000
     22         -3.495122   1.000000
     23         -3.495122   1.000000
     24         -2.089328   1.000000
     25         -2.089327   1.000000
     26         -2.089327   1.000000
     27         -1.151352   1.000000
     28         -1.151351   1.000000
     29         -1.151350   1.000000
     30         -1.067714   1.000000
     31         -1.067715   1.000000
     32         -0.828103   1.000000
     33         -0.828103   1.000000
     34         -0.828103   1.000000
     35         -0.423599   1.000000
     36         -0.423599   1.000000
     37         -0.423598   1.000000
     38          1.413110   0.000000
     39          5.392141   0.000000
     40          5.484257   0.000000
     41          5.484294   0.000000
     42          5.489096   0.000000
     43          5.782874   0.000000
     44          5.785503   0.000000
 
  0.3125000E-01 -0.1341760E-18  0.5418480E-18  0.2441406E-03
      1        -21.937081   1.000000
      2        -21.937081   1.000000
      3        -21.823346   1.000000
      4        -21.823345   1.000000
      5        -21.823329   1.000000
      6        -20.451814   1.000000
      7        -20.441200   1.000000
      8        -14.701118   1.000000
      9        -14.054931   1.000000
     10        -14.053687   1.000000
     11        -14.053686   1.000000
     12        -13.697626   1.000000
     13        -13.697626   1.000000
     14         -6.998018   1.000000
     15         -6.998017   1.000000
     16         -6.997273   1.000000
     17         -6.918482   1.000000
     18         -6.908925   1.000000
     19         -6.908924   1.000000
     20         -6.904607   1.000000
     21         -3.498017   1.000000
     22         -3.492883   1.000000
     23         -3.492868   1.000000
     24         -2.091029   1.000000
     25         -2.088435   1.000000
     26         -2.088434   1.000000
     27         -1.154083   1.000000
     28         -1.154082   1.000000
     29         -1.150015   1.000000
     30         -1.071481   1.000000
     31         -1.071481   1.000000
     32         -0.837192   1.000000
     33         -0.828104   1.000000
     34         -0.828104   1.000000
     35         -0.426958   1.000000
     36         -0.426958   1.000000
     37         -0.425356   1.000000
     38          1.421913   0.000000
     39          5.401731   0.000000
     40          5.482854   0.000000
     41          5.494011   0.000000
     42          5.496877   0.000000
     43          5.790003   0.000000
     44          5.791014   0.000000
 
  0.6250000E-01 -0.2683519E-18  0.1083696E-17  0.2441406E-03
      1        -21.937081   1.000000
      2        -21.937081   1.000000
      3        -21.823351   1.000000
      4        -21.823346   1.000000
      5        -21.823329   1.000000
      6        -20.451716   1.000000
      7        -20.441256   1.000000
      8        -14.699611   1.000000
      9        -14.057616   1.000000
     10        -14.052674   1.000000
     11        -14.052673   1.000000
     12        -13.698919   1.000000
     13        -13.698919   1.000000
     14         -6.996516   1.000000
     15         -6.996515   1.000000
     16         -6.993599   1.000000
     17         -6.920292   1.000000
     18         -6.908555   1.000000
     19         -6.908554   1.000000
     20         -6.895599   1.000000
     21         -3.506569   1.000000
     22         -3.486164   1.000000
     23         -3.486149   1.000000
     24         -2.096038   1.000000
     25         -2.085757   1.000000
     26         -2.085756   1.000000
     27         -1.162250   1.000000
     28         -1.162248   1.000000
     29         -1.146018   1.000000
     30         -1.082612   1.000000
     31         -1.082612   1.000000
     32         -0.863791   1.000000
     33         -0.828108   1.000000
     34         -0.828108   1.000000
     35         -0.436777   1.000000
     36         -0.436776   1.000000
     37         -0.430599   1.000000
     38          1.447765   0.000000
     39          5.430061   0.000000
     40          5.479299   0.000000
     41          5.523540   0.000000
     42          5.525968   0.000000
     43          5.811447   0.000000
     44          5.812634   0.000000
 
  0.9375000E-01  0.1780536E-17 -0.5575200E-18  0.2441406E-03
      1        -21.937088   1.000000
      2        -21.937088   1.000000
      3        -21.823351   1.000000
      4        -21.823346   1.000000
      5        -21.823329   1.000000
      6        -20.451556   1.000000
      7        -20.441348   1.000000
      8        -14.697131   1.000000
      9        -14.062003   1.000000
     10        -14.051014   1.000000
     11        -14.051014   1.000000
     12        -13.701032   1.000000
     13        -13.701033   1.000000
     14         -6.994053   1.000000
     15         -6.994052   1.000000
     16         -6.987703   1.000000
     17         -6.920194   1.000000
     18         -6.907981   1.000000
     19         -6.907980   1.000000
     20         -6.883888   1.000000
     21         -3.520428   1.000000
     22         -3.475107   1.000000
     23         -3.475092   1.000000
     24         -2.104049   1.000000
     25         -2.081324   1.000000
     26         -2.081323   1.000000
     27         -1.175786   1.000000
     28         -1.175784   1.000000
     29         -1.139407   1.000000
     30         -1.100696   1.000000
     31         -1.100696   1.000000
     32         -0.906229   1.000000
     33         -0.828315   1.000000
     34         -0.828315   1.000000
     35         -0.452277   1.000000
     36         -0.452276   1.000000
     37         -0.439234   1.000000
     38          1.489086   0.000000
     39          5.464506   0.000000
     40          5.482056   0.000000
     41          5.570214   0.000000
     42          5.572270   0.000000
     43          5.847091   0.000000
     44          5.851552   0.000000
 
  0.1250000E+00 -0.5367038E-18  0.2167392E-17  0.2441406E-03
      1        -21.937089   1.000000
      2        -21.937089   1.000000
      3        -21.823351   1.000000
      4        -21.823349   1.000000
      5        -21.823333   1.000000
      6        -20.451335   1.000000
      7        -20.441480   1.000000
      8        -14.693742   1.000000
      9        -14.067969   1.000000
     10        -14.048751   1.000000
     11        -14.048750   1.000000
     12        -13.703908   1.000000
     13        -13.703908   1.000000
     14         -6.990684   1.000000
     15         -6.990683   1.000000
     16         -6.979917   1.000000
     17         -6.918132   1.000000
     18         -6.907261   1.000000
     19         -6.907260   1.000000
     20         -6.869804   1.000000
     21         -3.539003   1.000000
     22         -3.459924   1.000000
     23         -3.459909   1.000000
     24         -2.114573   1.000000
     25         -2.075171   1.000000
     26         -2.075170   1.000000
     27         -1.194518   1.000000
     28         -1.194517   1.000000
     29         -1.130255   1.000000
     30         -1.125126   1.000000
     31         -1.125126   1.000000
     32         -0.962031   1.000000
     33         -0.828934   1.000000
     34         -0.828934   1.000000
     35         -0.472272   1.000000
     36         -0.472271   1.000000
     37         -0.451103   1.000000
     38          1.543578   0.000000
     39          5.454679   0.000000
     40          5.543043   0.000000
     41          5.633973   0.000000
     42          5.649453   0.000000
     43          5.894021   0.000000
     44          5.896299   0.000000
 
  0.1562500E+00 -0.5426710E-17 -0.2046590E-17  0.2441406E-03
      1        -21.937091   1.000000
      2        -21.937091   1.000000
      3        -21.823348   1.000000
      4        -21.823348   1.000000
      5        -21.823331   1.000000
      6        -20.451055   1.000000
      7        -20.441649   1.000000
      8        -14.689527   1.000000
      9        -14.075313   1.000000
     10        -14.045945   1.000000
     11        -14.045944   1.000000
     12        -13.707465   1.000000
     13        -13.707465   1.000000
     14         -6.986486   1.000000
     15         -6.986486   1.000000
     16         -6.970641   1.000000
     17         -6.914260   1.000000
     18         -6.906473   1.000000
     19         -6.906472   1.000000
     20         -6.853598   1.000000
     21         -3.561519   1.000000
     22         -3.440937   1.000000
     23         -3.440922   1.000000
     24         -2.127000   1.000000
     25         -2.067368   1.000000
     26         -2.067367   1.000000
     27         -1.218159   1.000000
     28         -1.218157   1.000000
     29         -1.155113   1.000000
     30         -1.155113   1.000000
     31         -1.118665   1.000000
     32         -1.028322   1.000000
     33         -0.830136   1.000000
     34         -0.830136   1.000000
     35         -0.495322   1.000000
     36         -0.495321   1.000000
     37         -0.466007   1.000000
     38          1.608521   0.000000
     39          5.436319   0.000000
     40          5.622012   0.000000
     41          5.713308   0.000000
     42          5.715097   0.000000
     43          5.952335   0.000000
     44          5.952986   0.000000
 
  0.1875000E+00  0.3561072E-17 -0.1115040E-17  0.2441406E-03
      1        -21.937095   1.000000
      2        -21.937095   1.000000
      3        -21.823354   1.000000
      4        -21.823350   1.000000
      5        -21.823334   1.000000
      6        -20.450723   1.000000
      7        -20.441856   1.000000
      8        -14.684602   1.000000
      9        -14.083802   1.000000
     10        -14.042672   1.000000
     11        -14.042671   1.000000
     12        -13.711595   1.000000
     13        -13.711595   1.000000
     14         -6.981563   1.000000
     15         -6.981563   1.000000
     16         -6.960329   1.000000
     17         -6.908822   1.000000
     18         -6.905710   1.000000
     19         -6.905709   1.000000
     20         -6.835620   1.000000
     21         -3.587065   1.000000
     22         -3.418576   1.000000
     23         -3.418561   1.000000
     24         -2.140590   1.000000
     25         -2.058027   1.000000
     26         -2.058026   1.000000
     27         -1.246379   1.000000
     28         -1.246377   1.000000
     29         -1.189700   1.000000
     30         -1.189699   1.000000
     31         -1.104792   1.000000
     32         -1.102101   1.000000
     33         -0.832031   1.000000
     34         -0.832031   1.000000
     35         -0.519875   1.000000
     36         -0.519874   1.000000
     37         -0.483674   1.000000
     38          1.681075   0.000000
     39          5.413509   0.000000
     40          5.714354   0.000000
     41          5.804678   0.000000
     42          5.818925   0.000000
     43          6.021049   0.000000
     44          6.024737   0.000000
 
  0.2187500E+00  0.8182726E-17  0.8548766E-17  0.2441406E-03
      1        -21.937101   1.000000
      2        -21.937101   1.000000
      3        -21.823361   1.000000
      4        -21.823349   1.000000
      5        -21.823333   1.000000
      6        -20.450343   1.000000
      7        -20.442101   1.000000
      8        -14.679114   1.000000
      9        -14.093156   1.000000
     10        -14.039028   1.000000
     11        -14.039028   1.000000
     12        -13.716171   1.000000
     13        -13.716171   1.000000
     14         -6.976022   1.000000
     15         -6.976020   1.000000
     16         -6.949439   1.000000
     17         -6.905079   1.000000
     18         -6.905077   1.000000
     19         -6.902117   1.000000
     20         -6.816323   1.000000
     21         -3.614614   1.000000
     22         -3.393389   1.000000
     23         -3.393373   1.000000
     24         -2.154519   1.000000
     25         -2.047301   1.000000
     26         -2.047299   1.000000
     27         -1.278647   1.000000
     28         -1.278646   1.000000
     29         -1.227724   1.000000
     30         -1.227723   1.000000
     31         -1.180419   1.000000
     32         -1.088835   1.000000
     33         -0.834646   1.000000
     34         -0.834645   1.000000
     35         -0.544451   1.000000
     36         -0.544451   1.000000
     37         -0.503739   1.000000
     38          1.758402   0.000000
     39          5.387587   0.000000
     40          5.817261   0.000000
     41          5.905856   0.000000
     42          5.948585   0.000000
     43          6.098977   0.000000
     44          6.114094   0.000000
 
  0.2500000E+00 -0.1073408E-17  0.4334784E-17  0.2441406E-03
      1        -21.937101   1.000000
      2        -21.937101   1.000000
      3        -21.823360   1.000000
      4        -21.823348   1.000000
      5        -21.823332   1.000000
      6        -20.449920   1.000000
      7        -20.442382   1.000000
      8        -14.673219   1.000000
      9        -14.103058   1.000000
     10        -14.035130   1.000000
     11        -14.035129   1.000000
     12        -13.721042   1.000000
     13        -13.721042   1.000000
     14         -6.969992   1.000000
     15         -6.969991   1.000000
     16         -6.938413   1.000000
     17         -6.904683   1.000000
     18         -6.904683   1.000000
     19         -6.894498   1.000000
     20         -6.796253   1.000000
     21         -3.643101   1.000000
     22         -3.366068   1.000000
     23         -3.366052   1.000000
     24         -2.167954   1.000000
     25         -2.035423   1.000000
     26         -2.035422   1.000000
     27         -1.314234   1.000000
     28         -1.314233   1.000000
     29         -1.267793   1.000000
     30         -1.267792   1.000000
     31         -1.260453   1.000000
     32         -1.070997   1.000000
     33         -0.837925   1.000000
     34         -0.837925   1.000000
     35         -0.567813   1.000000
     36         -0.567812   1.000000
     37         -0.525813   1.000000
     38          1.837761   0.000000
     39          5.356112   0.000000
     40          5.927767   0.000000
     41          6.014310   0.000000
     42          6.137969   0.000000
     43          6.180630   0.000000
     44          6.440844   0.000000
 
  0.2812500E+00  0.3548246E-17  0.1208019E-18  0.2441406E-03
      1        -21.937101   1.000000
      2        -21.937101   1.000000
      3        -21.823353   1.000000
      4        -21.823343   1.000000
      5        -21.823327   1.000000
      6        -20.449461   1.000000
      7        -20.442697   1.000000
      8        -14.667119   1.000000
      9        -14.113155   1.000000
     10        -14.031109   1.000000
     11        -14.031107   1.000000
     12        -13.726035   1.000000
     13        -13.726035   1.000000
     14         -6.963610   1.000000
     15         -6.963609   1.000000
     16         -6.927649   1.000000
     17         -6.904637   1.000000
     18         -6.904636   1.000000
     19         -6.886378   1.000000
     20         -6.776068   1.000000
     21         -3.671424   1.000000
     22         -3.337471   1.000000
     23         -3.337456   1.000000
     24         -2.180127   1.000000
     25         -2.022698   1.000000
     26         -2.022697   1.000000
     27         -1.352092   1.000000
     28         -1.352091   1.000000
     29         -1.339583   1.000000
     30         -1.308435   1.000000
     31         -1.308435   1.000000
     32         -1.051646   1.000000
     33         -0.841734   1.000000
     34         -0.841733   1.000000
     35         -0.589011   1.000000
     36         -0.589010   1.000000
     37         -0.549403   1.000000
     38          1.916475   0.000000
     39          5.316640   0.000000
     40          6.042557   0.000000
     41          6.125524   0.000000
     42          6.220637   0.000000
     43          6.268263   0.000000
     44          6.333389   0.000000
 
  0.3125000E+00 -0.1085342E-16 -0.4093180E-17  0.2441406E-03
      1        -21.937109   1.000000
      2        -21.937109   1.000000
      3        -21.823356   1.000000
      4        -21.823347   1.000000
      5        -21.823331   1.000000
      6        -20.448973   1.000000
      7        -20.443050   1.000000
      8        -14.661045   1.000000
      9        -14.123069   1.000000
     10        -14.027115   1.000000
     11        -14.027114   1.000000
     12        -13.730960   1.000000
     13        -13.730960   1.000000
     14         -6.957030   1.000000
     15         -6.957029   1.000000
     16         -6.917519   1.000000
     17         -6.905036   1.000000
     18         -6.905036   1.000000
     19         -6.878190   1.000000
     20         -6.756493   1.000000
     21         -3.698517   1.000000
     22         -3.308641   1.000000
     23         -3.308626   1.000000
     24         -2.190431   1.000000
     25         -2.009562   1.000000
     26         -2.009561   1.000000
     27         -1.415353   1.000000
     28         -1.390579   1.000000
     29         -1.390578   1.000000
     30         -1.348325   1.000000
     31         -1.348324   1.000000
     32         -1.031194   1.000000
     33         -0.845860   1.000000
     34         -0.845860   1.000000
     35         -0.607518   1.000000
     36         -0.607518   1.000000
     37         -0.573923   1.000000
     38          1.991916   0.000000
     39          5.279143   0.000000
     40          6.158643   0.000000
     41          6.237806   0.000000
     42          6.343527   0.000000
     43          6.357779   0.000000
     44          6.662245   0.000000
 
  0.3437500E+00  0.4054713E-16  0.1983902E-17  0.2441406E-03
      1        -21.937109   1.000000
      2        -21.937109   1.000000
      3        -21.823361   1.000000
      4        -21.823343   1.000000
      5        -21.823327   1.000000
      6        -20.448460   1.000000
      7        -20.443436   1.000000
      8        -14.655251   1.000000
      9        -14.132392   1.000000
     10        -14.023315   1.000000
     11        -14.023314   1.000000
     12        -13.735616   1.000000
     13        -13.735616   1.000000
     14         -6.950393   1.000000
     15         -6.950392   1.000000
     16         -6.908325   1.000000
     17         -6.905969   1.000000
     18         -6.905968   1.000000
     19         -6.870359   1.000000
     20         -6.738277   1.000000
     21         -3.723362   1.000000
     22         -3.280751   1.000000
     23         -3.280736   1.000000
     24         -2.198389   1.000000
     25         -1.996567   1.000000
     26         -1.996565   1.000000
     27         -1.485322   1.000000
     28         -1.427508   1.000000
     29         -1.427507   1.000000
     30         -1.386320   1.000000
     31         -1.386320   1.000000
     32         -1.010219   1.000000
     33         -0.850029   1.000000
     34         -0.850029   1.000000
     35         -0.623008   1.000000
     36         -0.623007   1.000000
     37         -0.598618   1.000000
     38          2.061547   0.000000
     39          5.238995   0.000000
     40          6.270573   0.000000
     41          6.344828   0.000000
     42          6.447367   0.000000
     43          6.449485   0.000000
     44          6.889830   0.000000
 
  0.3750000E+00  0.7122144E-17 -0.2230080E-17  0.2441406E-03
      1        -21.937112   1.000000
      2        -21.937112   1.000000
      3        -21.823354   1.000000
      4        -21.823343   1.000000
      5        -21.823327   1.000000
      6        -20.447932   1.000000
      7        -20.443853   1.000000
      8        -14.650005   1.000000
      9        -14.140725   1.000000
     10        -14.019882   1.000000
     11        -14.019882   1.000000
     12        -13.739799   1.000000
     13        -13.739799   1.000000
     14         -6.943855   1.000000
     15         -6.943854   1.000000
     16         -6.907511   1.000000
     17         -6.907510   1.000000
     18         -6.900354   1.000000
     19         -6.863315   1.000000
     20         -6.722157   1.000000
     21         -3.745056   1.000000
     22         -3.255139   1.000000
     23         -3.255123   1.000000
     24         -2.203867   1.000000
     25         -1.984410   1.000000
     26         -1.984409   1.000000
     27         -1.547197   1.000000
     28         -1.460341   1.000000
     29         -1.460339   1.000000
     30         -1.421429   1.000000
     31         -1.421430   1.000000
     32         -0.989568   1.000000
     33         -0.853975   1.000000
     34         -0.853975   1.000000
     35         -0.635449   1.000000
     36         -0.635448   1.000000
     37         -0.622515   1.000000
     38          2.122862   0.000000
     39          5.202840   0.000000
     40          6.377326   0.000000
     41          6.451370   0.000000
     42          6.511768   0.000000
     43          6.545037   0.000000
     44          6.922149   0.000000
 
  0.4062500E+00  0.3949937E-16  0.3847002E-17  0.2441406E-03
      1        -21.937116   1.000000
      2        -21.937116   1.000000
      3        -21.823357   1.000000
      4        -21.823342   1.000000
      5        -21.823326   1.000000
      6        -20.447396   1.000000
      7        -20.444300   1.000000
      8        -14.645575   1.000000
      9        -14.147686   1.000000
     10        -14.016987   1.000000
     11        -14.016986   1.000000
     12        -13.743308   1.000000
     13        -13.743308   1.000000
     14         -6.937567   1.000000
     15         -6.937566   1.000000
     16         -6.909697   1.000000
     17         -6.909697   1.000000
     18         -6.893859   1.000000
     19         -6.857424   1.000000
     20         -6.708818   1.000000
     21         -3.762801   1.000000
     22         -3.233211   1.000000
     23         -3.233195   1.000000
     24         -2.207052   1.000000
     25         -1.973880   1.000000
     26         -1.973878   1.000000
     27         -1.598671   1.000000
     28         -1.486646   1.000000
     29         -1.486646   1.000000
     30         -1.452580   1.000000
     31         -1.452580   1.000000
     32         -0.970408   1.000000
     33         -0.857381   1.000000
     34         -0.857381   1.000000
     35         -0.644905   1.000000
     36         -0.644905   1.000000
     37         -0.644369   1.000000
     38          2.173524   0.000000
     39          5.171792   0.000000
     40          6.472218   0.000000
     41          6.574908   0.000000
     42          6.611868   0.000000
     43          6.670693   0.000000
     44          6.894363   0.000000
 
  0.4375000E+00  0.1636545E-16  0.1709753E-16  0.2441406E-03
      1        -21.937120   1.000000
      2        -21.937120   1.000000
      3        -21.823351   1.000000
      4        -21.823341   1.000000
      5        -21.823325   1.000000
      6        -20.446854   1.000000
      7        -20.444775   1.000000
      8        -14.642203   1.000000
      9        -14.152933   1.000000
     10        -14.014785   1.000000
     11        -14.014784   1.000000
     12        -13.745962   1.000000
     13        -13.745962   1.000000
     14         -6.931689   1.000000
     15         -6.931688   1.000000
     16         -6.912527   1.000000
     17         -6.912526   1.000000
     18         -6.889052   1.000000
     19         -6.852989   1.000000
     20         -6.698843   1.000000
     21         -3.775961   1.000000
     22         -3.216335   1.000000
     23         -3.216319   1.000000
     24         -2.208485   1.000000
     25         -1.965738   1.000000
     26         -1.965736   1.000000
     27         -1.637516   1.000000
     28         -1.504456   1.000000
     29         -1.504455   1.000000
     30         -1.478479   1.000000
     31         -1.478478   1.000000
     32         -0.954332   1.000000
     33         -0.860015   1.000000
     34         -0.860015   1.000000
     35         -0.662429   1.000000
     36         -0.651534   1.000000
     37         -0.651533   1.000000
     38          2.211429   0.000000
     39          5.148143   0.000000
     40          6.552935   0.000000
     41          6.657501   0.000000
     42          6.707216   0.000000
     43          6.737585   0.000000
     44          6.848403   0.000000
 
  0.4687500E+00 -0.6768469E-17  0.1288355E-16  0.2441406E-03
      1        -21.937122   1.000000
      2        -21.937122   1.000000
      3        -21.823353   1.000000
      4        -21.823342   1.000000
      5        -21.823326   1.000000
      6        -20.446317   1.000000
      7        -20.445272   1.000000
      8        -14.640090   1.000000
      9        -14.156199   1.000000
     10        -14.013407   1.000000
     11        -14.013406   1.000000
     12        -13.747619   1.000000
     13        -13.747619   1.000000
     14         -6.926479   1.000000
     15         -6.926478   1.000000
     16         -6.915861   1.000000
     17         -6.915860   1.000000
     18         -6.886099   1.000000
     19         -6.850242   1.000000
     20         -6.692669   1.000000
     21         -3.784055   1.000000
     22         -3.205672   1.000000
     23         -3.205655   1.000000
     24         -2.208893   1.000000
     25         -1.960601   1.000000
     26         -1.960600   1.000000
     27         -1.661785   1.000000
     28         -1.512779   1.000000
     29         -1.512778   1.000000
     30         -1.497526   1.000000
     31         -1.497526   1.000000
     32         -0.943355   1.000000
     33         -0.861685   1.000000
     34         -0.861685   1.000000
     35         -0.674618   1.000000
     36         -0.655446   1.000000
     37         -0.655446   1.000000
     38          2.234905   0.000000
     39          5.131724   0.000000
     40          6.610861   0.000000
     41          6.757961   0.000000
     42          6.777697   0.000000
     43          6.826082   0.000000
     44          6.851397   0.000000
 
  0.5000000E+00 -0.2146815E-17  0.8669568E-17  0.1220703E-03
      1        -21.937118   1.000000
      2        -21.937118   1.000000
      3        -21.823347   1.000000
      4        -21.823338   1.000000
      5        -21.823322   1.000000
      6        -20.445788   1.000000
      7        -20.445784   1.000000
      8        -14.639371   1.000000
      9        -14.157309   1.000000
     10        -14.012936   1.000000
     11        -14.012935   1.000000
     12        -13.748181   1.000000
     13        -13.748181   1.000000
     14         -6.923422   1.000000
     15         -6.923421   1.000000
     16         -6.918281   1.000000
     17         -6.918280   1.000000
     18         -6.885099   1.000000
     19         -6.849306   1.000000
     20         -6.690573   1.000000
     21         -3.786776   1.000000
     22         -3.202011   1.000000
     23         -3.201994   1.000000
     24         -2.208923   1.000000
     25         -1.958846   1.000000
     26         -1.958845   1.000000
     27         -1.670049   1.000000
     28         -1.513407   1.000000
     29         -1.513405   1.000000
     30         -1.506195   1.000000
     31         -1.506195   1.000000
     32         -0.939420   1.000000
     33         -0.862253   1.000000
     34         -0.862253   1.000000
     35         -0.678948   1.000000
     36         -0.656734   1.000000
     37         -0.656733   1.000000
     38          2.242863   0.000000
     39          5.126929   0.000000
     40          6.636158   0.000000
     41          6.698088   0.000000
     42          6.801839   0.000000
     43          6.821001   0.000000
     44          6.837960   0.000000
 
  0.3125000E-01  0.3125000E-01  0.4823947E-17  0.1831055E-03
      1        -21.937080   1.000000
      2        -21.937079   1.000000
      3        -21.823345   1.000000
      4        -21.823344   1.000000
      5        -21.823328   1.000000
      6        -20.451803   1.000000
      7        -20.441206   1.000000
      8        -14.700950   1.000000
      9        -14.054131   1.000000
     10        -14.054130   1.000000
     11        -14.054117   1.000000
     12        -13.698394   1.000000
     13        -13.697149   1.000000
     14         -6.997733   1.000000
     15         -6.997732   1.000000
     16         -6.997087   1.000000
     17         -6.919006   1.000000
     18         -6.908678   1.000000
     19         -6.908678   1.000000
     20         -6.903682   1.000000
     21         -3.494561   1.000000
     22         -3.494550   1.000000
     23         -3.494121   1.000000
     24         -2.092956   1.000000
     25         -2.087454   1.000000
     26         -2.087453   1.000000