       N       E                     dE             d eps       ncg     rms          rms(c)
DAV:   1     0.449823105450E+03    0.44982E+03   -0.27512E+04 79560   0.128E+03
DAV:   2    -0.109444028782E+03   -0.55927E+03   -0.54440E+03 99488   0.291E+02
DAV:   3    -0.180333400622E+03   -0.70889E+02   -0.70369E+02 88160   0.125E+02
DAV:   4    -0.182684200357E+03   -0.23508E+01   -0.23442E+01 98824   0.283E+01
DAV:   5    -0.182747993724E+03   -0.63793E-01   -0.63726E-01110068   0.421E+00    0.753E+00
RMM:   6    -0.167520507652E+03    0.15227E+02   -0.38503E+00 94019   0.127E+01    0.523E+00
RMM:   7    -0.167513180180E+03    0.73275E-02   -0.15436E+00 97783   0.467E+00    0.191E+00
RMM:   8    -0.167512943915E+03    0.23627E-03   -0.11064E-01108208   0.226E+00    0.841E-01
RMM:   9    -0.167519817008E+03   -0.68731E-02   -0.37676E-02103752   0.105E+00    0.189E-01
RMM:  10    -0.167520258530E+03   -0.44152E-03   -0.88419E-03118121   0.566E-01    0.128E-01
RMM:  11    -0.167520480051E+03   -0.22152E-03   -0.19547E-03107544   0.268E-01    0.327E-02
RMM:  12    -0.167520510458E+03   -0.30407E-04   -0.53381E-04 94165   0.130E-01
   1 F= -.16752051E+03 E0= -.16752051E+03  d E =-.107879E-08
