 vasp.6.3.0 20Jan22 (build Jun 09 2022 22:18:40) complex                        
  
 executed on             LinuxIFC date 2022.06.29  11:50:55
 running on   24 total cores
 distrk:  each k-point on   24 cores,    1 groups
 distr:  one band on NCORE=  24 cores,    1 groups


--------------------------------------------------------------------------------------------------------


 INCAR:
   SYSTEM = mip
   NWRITE = 2
   LPETIM = F  write-flag & timer
   ISTART = 1   job   :0-new  1-cont  2-samecut
   ICHARG = 2   charge: 1-file 2-atom 10-const
   ENCUT = 400
   LWAVE = F
   LCHARG = F
   NELM = 140
   NELMIN = 5
   EDIFF = 1E-04  stopping-criterion for ELM
   AMIX = 0.4
   BMIX = 1.0
   NSW = 0   number of steps for IOM
   EDIFFG = -1E-02  stopping-criterion for IOM
   NBLOCK = 1
   KBLOCK = 5  inner block
   IBRION = -1   ionic relax: 0-MD 1-quasi-New 2-CG
   ISIF = 0   stress and relaxation
   IWAVPR = 1   prediction: 0-non 1-charg 2-wave 3-comb
   LCORR = T   Harris-correction to forces
   POTIM = 0.05   time-step for ion-motion
   ISMEAR = -1
   SIGMA = 0.05  broadening in eV -4-tet -1-fermi 0-gaus
   ALGO = Fast   algorithm
   LDIAG = T   sub-space diagonalisation
   LREAL = F   real-space projection(O or Auto)
   WEIMIN = 0
   PREC = Accurate
   ADDGRID = .TRUE.
   METAGGA = R2SCAN
   NPAR = 1

 POTCAR:    PAW_PBE Cs_sv 08Apr2002               
 POTCAR:    PAW_PBE Sn_d 06Sep2000                
 POTCAR:    PAW_PBE Br 06Sep2000                  
 -----------------------------------------------------------------------------
|                                                                             |
|           W    W    AA    RRRRR   N    N  II  N    N   GGGG   !!!           |
|           W    W   A  A   R    R  NN   N  II  NN   N  G    G  !!!           |
|           W    W  A    A  R    R  N N  N  II  N N  N  G       !!!           |
|           W WW W  AAAAAA  RRRRR   N  N N  II  N  N N  G  GGG   !            |
|           WW  WW  A    A  R   R   N   NN  II  N   NN  G    G                |
|           W    W  A    A  R    R  N    N  II  N    N   GGGG   !!!           |
|                                                                             |
|     For optimal performance we recommend to set                             |
|       NCORE = 2 up to number-of-cores-per-socket                            |
|     NCORE specifies how many cores store one orbital (NPAR=cpu/NCORE).      |
|     This setting can greatly improve the performance of VASP for DFT.       |
|     The default, NCORE=1 might be grossly inefficient on modern             |
|     multi-core architectures or massively parallel machines. Do your        |
|     own testing! More info at https://www.vasp.at/wiki/index.php/NCORE      |
|     Unfortunately you need to use the default for GW and RPA                |
|     calculations (for HF NCORE is supported but not extensively tested      |
|     yet).                                                                   |
|                                                                             |
 -----------------------------------------------------------------------------

 POTCAR:    PAW_PBE Cs_sv 08Apr2002               
   VRHFIN =Cs: 5s5p6s                                                                               
   LEXCH  = PE                                                                                      
   EATOM  =   555.6835 eV,   40.8416 Ry                                                             
                                                                                                    
   TITEL  = PAW_PBE Cs_sv 08Apr2002                                                                 
   LULTRA =        F    use ultrasoft PP ?                                                          
   IUNSCR =        1    unscreen: 0-lin 1-nonlin 2-no                                               
   RPACOR =    2.200    partial core radius                                                         
   POMASS =  132.900; ZVAL   =    9.000    mass and valenz                                          
   RCORE  =    2.500    outmost cutoff radius                                                       
   RWIGS  =    2.500; RWIGS  =    1.323    wigner-seitz radius (au A)                               
   ENMAX  =  220.318; ENMIN  =  165.238 eV                                                          
   RCLOC  =    2.207    cutoff for local pot                                                        
   LCOR   =        T    correct aug charges                                                         
   LPAW   =        T    paw PP                                                                      
   EAUG   =  407.933                                                                                
   DEXC   =    0.000                                                                                
   RMAX   =    2.554    core radius for proj-oper                                                   
   RAUG   =    1.300    factor for augmentation sphere                                              
   RDEP   =    2.590    radius for radial grids                                                     
   RDEPT  =    2.117    core radius for aug-charge                                                  
                                                                                                    
   Atomic configuration                                                                             
   13 entries                                                                                       
     n  l   j            E        occ.                                                              
     1  0  0.50    -35790.1377   2.0000                                                             
     2  0  0.50     -5613.6201   2.0000                                                             
     2  1  1.50     -5035.0101   6.0000                                                             
     3  0  0.50     -1167.0767   2.0000                                                             
     3  1  1.50      -980.9754   6.0000                                                             
     3  2  2.50      -708.0703  10.0000                                                             
     4  0  0.50      -220.2386   2.0000                                                             
     4  1  1.50      -160.7596   6.0000                                                             
     4  2  2.50       -74.2354  10.0000                                                             
     5  0  0.50       -26.7287   2.0000                                                             
     6  0  0.50        -2.0862   1.0000                                                             
     5  1  1.50       -13.5159   6.0000                                                             
     5  2  2.50        -0.4136   0.0000                                                             
   Description                                                                                      
     l       E           TYP  RCUT    TYP  RCUT                                                     
     0    -26.7287425     23  1.900                                                                 
     0     -2.0862306     23  1.900                                                                 
     1    -13.5158719     23  2.500                                                                 
     1     -2.7211652     23  2.500                                                                 
     2     -0.4136171     23  2.500                                                                 
  local pseudopotential read in
  partial core-charges read in
  partial kinetic energy density read in
  atomic valenz-charges read in
  non local Contribution for L=           0  read in
    real space projection operators read in
  non local Contribution for L=           0  read in
    real space projection operators read in
  non local Contribution for L=           1  read in
    real space projection operators read in
  non local Contribution for L=           1  read in
    real space projection operators read in
  non local Contribution for L=           2  read in
    real space projection operators read in
    PAW grid and wavefunctions read in
 
   number of l-projection  operators is LMAX  =           5
   number of lm-projection operators is LMMAX =          13
 
 POTCAR:    PAW_PBE Sn_d 06Sep2000                
   VRHFIN =Sn: s2p2                                                                                 
   LEXCH  = PE                                                                                      
   EATOM  =  1893.1092 eV,  139.1396 Ry                                                             
                                                                                                    
   TITEL  = PAW_PBE Sn_d 06Sep2000                                                                  
   LULTRA =        F    use ultrasoft PP ?                                                          
   IUNSCR =        1    unscreen: 0-lin 1-nonlin 2-no                                               
   RPACOR =    2.300    partial core radius                                                         
   POMASS =  118.710; ZVAL   =   14.000    mass and valenz                                          
   RCORE  =    2.500    outmost cutoff radius                                                       
   RWIGS  =    2.960; RWIGS  =    1.566    wigner-seitz radius (au A)                               
   ENMAX  =  241.083; ENMIN  =  180.812 eV                                                          
   ICORE  =        3    local potential                                                             
   LCOR   =        T    correct aug charges                                                         
   LPAW   =        T    paw PP                                                                      
   EAUG   =  439.825                                                                                
   DEXC   =    0.000                                                                                
   RMAX   =    2.560    core radius for proj-oper                                                   
   RAUG   =    1.300    factor for augmentation sphere                                              
   RDEP   =    2.659    radius for radial grids                                                     
   RDEPT  =    2.046    core radius for aug-charge                                                  
                                                                                                    
   Atomic configuration                                                                             
   12 entries                                                                                       
     n  l   j            E        occ.                                                              
     1  0  0.50    -29007.2859   2.0000                                                             
     2  0  0.50     -4378.8056   2.0000                                                             
     2  1  1.50     -3930.4293   6.0000                                                             
     3  0  0.50      -845.0264   2.0000                                                             
     3  1  1.50      -698.5725   6.0000                                                             
     3  2  2.50      -473.2839  10.0000                                                             
     4  0  0.50      -133.9036   2.0000                                                             
     4  1  1.50       -89.6752   6.0000                                                             
     4  2  2.50       -25.8375  10.0000                                                             
     5  0  0.50       -10.5484   2.0000                                                             
     5  1  0.50        -3.6940   2.0000                                                             
     4  3  2.50        -2.7416   0.0000                                                             
   Description                                                                                      
     l       E           TYP  RCUT    TYP  RCUT                                                     
     2    -25.8374624     23  2.500                                                                 
     2     -5.4423304     23  2.500                                                                 
     0    -10.5483727     23  2.500                                                                 
     0     13.6058260     23  2.500                                                                 
     1     -3.6939829     23  2.500                                                                 
     1      1.9821976     23  2.500                                                                 
     3     -1.3605826      7  2.500                                                                 
  local pseudopotential read in
  partial core-charges read in
  partial kinetic energy density read in
  atomic valenz-charges read in
  non local Contribution for L=           2  read in
    real space projection operators read in
  non local Contribution for L=           2  read in
    real space projection operators read in
  non local Contribution for L=           0  read in
    real space projection operators read in
  non local Contribution for L=           0  read in
    real space projection operators read in
  non local Contribution for L=           1  read in
    real space projection operators read in
  non local Contribution for L=           1  read in
    real space projection operators read in
    PAW grid and wavefunctions read in
 
   number of l-projection  operators is LMAX  =           6
   number of lm-projection operators is LMMAX =          18
 
 POTCAR:    PAW_PBE Br 06Sep2000                  
   VRHFIN =Br: s2p5                                                                                 
   LEXCH  = PE                                                                                      
   EATOM  =   368.4488 eV,   27.0802 Ry                                                             
                                                                                                    
   TITEL  = PAW_PBE Br 06Sep2000                                                                    
   LULTRA =        F    use ultrasoft PP ?                                                          
   IUNSCR =        1    unscreen: 0-lin 1-nonlin 2-no                                               
   RPACOR =    1.900    partial core radius                                                         
   POMASS =   79.904; ZVAL   =    7.000    mass and valenz                                          
   RCORE  =    2.100    outmost cutoff radius                                                       
   RWIGS  =    2.200; RWIGS  =    1.164    wigner-seitz radius (au A)                               
   ENMAX  =  216.285; ENMIN  =  162.214 eV                                                          
   ICORE  =        3    local potential                                                             
   LCOR   =        T    correct aug charges                                                         
   LPAW   =        T    paw PP                                                                      
   EAUG   =  503.852                                                                                
   DEXC   =    0.000                                                                                
   RMAX   =    2.139    core radius for proj-oper                                                   
   RAUG   =    1.300    factor for augmentation sphere                                              
   RDEP   =    2.186    radius for radial grids                                                     
   RDEPT  =    1.890    core radius for aug-charge                                                  
                                                                                                    
   Atomic configuration                                                                             
   10 entries                                                                                       
     n  l   j            E        occ.                                                              
     1  0  0.50    -13316.2796   2.0000                                                             
     2  0  0.50     -1732.8239   2.0000                                                             
     2  1  1.50     -1528.2193   6.0000                                                             
     3  0  0.50      -238.0460   2.0000                                                             
     3  1  1.50      -173.4609   6.0000                                                             
     3  2  2.50       -66.7132  10.0000                                                             
     4  0  0.50       -20.1334   2.0000                                                             
     4  1  0.50        -7.8591   5.0000                                                             
     4  2  2.50        -8.1635   0.0000                                                             
     4  3  2.50        -8.1635   0.0000                                                             
   Description                                                                                      
     l       E           TYP  RCUT    TYP  RCUT                                                     
     0    -20.1333652     23  2.100                                                                 
     0    -21.4939478     23  2.100                                                                 
     1     -7.8591052     23  2.100                                                                 
     1     -3.1608434     23  2.100                                                                 
     2     -8.1634956     23  2.100                                                                 
     3     -1.3605826      7  2.100                                                                 
  local pseudopotential read in
  partial core-charges read in
  partial kinetic energy density read in
  atomic valenz-charges read in
  non local Contribution for L=           0  read in
    real space projection operators read in
  non local Contribution for L=           0  read in
    real space projection operators read in
  non local Contribution for L=           1  read in
    real space projection operators read in
  non local Contribution for L=           1  read in
    real space projection operators read in
  non local Contribution for L=           2  read in
    real space projection operators read in
    PAW grid and wavefunctions read in
 
   number of l-projection  operators is LMAX  =           5
   number of lm-projection operators is LMMAX =          13
 
  PAW_PBE Cs_sv 08Apr2002               :
 energy of atom  1       EATOM= -555.6835
 kinetic energy error for atom=    0.0041 (will be added to EATOM!!)
  PAW_PBE Sn_d 06Sep2000                :
 energy of atom  2       EATOM=-1893.1092
 kinetic energy error for atom=    0.0047 (will be added to EATOM!!)
  PAW_PBE Br 06Sep2000                  :
 energy of atom  3       EATOM= -368.4488
 kinetic energy error for atom=    0.0032 (will be added to EATOM!!)
 
 
 POSCAR: generated by phonopy
  positions in direct lattice
  velocities in cartesian coordinates
 WARNING: For meta-GGA calculations it is strongly recommended to include
     aspherical contributions to the potential inside the PAW spheres (set
     LASPH = .TRUE.)


 METAGGA = R2SCA    LMAXTAU =  0    LMIXTAU =  F

 exchange correlation table for  LEXCH =        8
   RHO(1)=    0.500       N(1)  =     2000
   RHO(2)=  100.500       N(2)  =     4000
 


--------------------------------------------------------------------------------------------------------


 ion  position               nearest neighbor table
   1  0.250  0.250  0.250-
   2  0.750  0.750  0.750-
   3  0.000  0.000  0.000-   4 2.63   5 2.63   6 2.63   7 2.63   8 2.63   9 2.63
   4  0.240  0.240  0.760-   3 2.63
   5  0.760  0.760  0.240-   3 2.63
   6  0.760  0.240  0.240-   3 2.63
   7  0.240  0.760  0.760-   3 2.63
   8  0.240  0.760  0.240-   3 2.63
   9  0.760  0.240  0.760-   3 2.63
 
  LATTYP: Found a face centered cubic cell.
 ALAT       =    10.9661971583
  
  Lattice vectors:
  
 A1 = (   0.0000000000,   5.4830985792,   5.4830985792)
 A2 = (   5.4830985792,   0.0000000000,   5.4830985792)
 A3 = (   5.4830985792,   5.4830985792,   0.0000000000)


Analysis of symmetry for initial positions (statically):
=====================================================================
 Subroutine PRICEL returns:
 Original cell was already a primitive cell.
 

 Routine SETGRP: Setting up the symmetry group for a 
 face centered cubic supercell.


 Subroutine GETGRP returns: Found 48 space group operations
 (whereof 48 operations were pure point group operations)
 out of a pool of 48 trial point group operations.


The static configuration has the point symmetry O_h .


Analysis of symmetry for dynamics (positions and initial velocities):
=====================================================================
 Subroutine PRICEL returns:
 Original cell was already a primitive cell.
 

 Routine SETGRP: Setting up the symmetry group for a 
 face centered cubic supercell.


 Subroutine GETGRP returns: Found 48 space group operations
 (whereof 48 operations were pure point group operations)
 out of a pool of 48 trial point group operations.


The dynamic configuration has the point symmetry O_h .


 Subroutine INISYM returns: Found 48 space group operations
 (whereof 48 operations are pure point group operations),
 and found     1 'primitive' translations


----------------------------------------------------------------------------------------

                                     Primitive cell                                     

  volume of cell :     329.6918

  direct lattice vectors                    reciprocal lattice vectors
     0.000000000  5.483098579  5.483098579    -0.091189314  0.091189314  0.091189314
     5.483098579  0.000000000  5.483098579     0.091189314 -0.091189314  0.091189314
     5.483098579  5.483098579  0.000000000     0.091189314  0.091189314 -0.091189314

  length of vectors
     7.754272374  7.754272374  7.754272374     0.157944526  0.157944526  0.157944526

  position of ions in fractional coordinates (direct lattice)
     0.250000000  0.250000000  0.250000000
     0.750000000  0.750000000  0.750000000
     0.000000000  0.000000000  0.000000000
     0.239766677  0.239766677  0.760233323
     0.760233323  0.760233323  0.239766677
     0.760233323  0.239766677  0.239766677
     0.239766677  0.760233323  0.760233323
     0.239766677  0.760233323  0.239766677
     0.760233323  0.239766677  0.760233323

  ion indices of the primitive-cell ions
   primitive index   ion index
                 1           1
                 2           2
                 3           3
                 4           4
                 5           5
                 6           6
                 7           7
                 8           8
                 9           9

----------------------------------------------------------------------------------------

 
 
 KPOINTS: Cs2PbCl6                                

Automatic generation of k-mesh.
 Grid dimensions read from file:
 generate k-points for:   32   32   32

 Generating k-lattice:

  Cartesian coordinates                     Fractional coordinates (reciprocal lattice)
    -0.002849666  0.002849666  0.002849666     0.031250000 -0.000000000  0.000000000
     0.002849666 -0.002849666  0.002849666    -0.000000000  0.031250000 -0.000000000
     0.002849666  0.002849666 -0.002849666     0.000000000  0.000000000  0.031250000

  Length of vectors
     0.004935766  0.004935766  0.004935766

  Shift w.r.t. Gamma in fractional coordinates (k-lattice)
     0.000000000  0.000000000  0.000000000

 
 Subroutine IBZKPT returns following result:
 ===========================================
 
 Found    897 irreducible k-points:
 
 Following reciprocal coordinates:
            Coordinates               Weight
  0.000000  0.000000  0.000000      1.000000
  0.031250 -0.000000  0.000000      8.000000
  0.062500 -0.000000  0.000000      8.000000
  0.093750  0.000000 -0.000000      8.000000
  0.125000 -0.000000  0.000000      8.000000
  0.156250 -0.000000 -0.000000      8.000000
  0.187500  0.000000 -0.000000      8.000000
  0.218750  0.000000  0.000000      8.000000
  0.250000 -0.000000  0.000000      8.000000
  0.281250  0.000000  0.000000      8.000000
  0.312500 -0.000000 -0.000000      8.000000
  0.343750  0.000000  0.000000      8.000000
  0.375000  0.000000 -0.000000      8.000000
  0.406250  0.000000  0.000000      8.000000
  0.437500  0.000000  0.000000      8.000000
  0.468750 -0.000000  0.000000      8.000000
  0.500000 -0.000000  0.000000      4.000000
  0.031250  0.031250  0.000000      6.000000
  0.062500  0.031250  0.000000     24.000000
  0.093750  0.031250  0.000000     24.000000
  0.125000  0.031250  0.000000     24.000000
  0.156250  0.031250  0.000000     24.000000
  0.187500  0.031250 -0.000000     24.000000
  0.218750  0.031250 -0.000000     24.000000
  0.250000  0.031250  0.000000     24.000000
  0.281250  0.031250  0.000000     24.000000
  0.312500  0.031250 -0.000000     24.000000
  0.343750  0.031250  0.000000     24.000000
  0.375000  0.031250 -0.000000     24.000000
  0.406250  0.031250 -0.000000     24.000000
  0.437500  0.031250  0.000000     24.000000
  0.468750  0.031250  0.000000     24.000000
  0.500000  0.031250  0.000000     24.000000
 -0.468750  0.031250 -0.000000     24.000000
 -0.437500  0.031250 -0.000000     24.000000
 -0.406250  0.031250 -0.000000     24.000000
 -0.375000  0.031250  0.000000     24.000000
 -0.343750  0.031250  0.000000     24.000000
 -0.312500  0.031250  0.000000     24.000000
 -0.281250  0.031250  0.000000     24.000000
 -0.250000  0.031250  0.000000     24.000000
 -0.218750  0.031250 -0.000000     24.000000
 -0.187500  0.031250 -0.000000     24.000000
 -0.156250  0.031250  0.000000     24.000000
 -0.125000  0.031250 -0.000000     24.000000
 -0.093750  0.031250 -0.000000     24.000000
 -0.062500  0.031250  0.000000     24.000000
 -0.031250  0.031250 -0.000000     12.000000
  0.062500  0.062500  0.000000      6.000000
  0.093750  0.062500  0.000000     24.000000
  0.125000  0.062500  0.000000     24.000000
  0.156250  0.062500  0.000000     24.000000
  0.187500  0.062500  0.000000     24.000000
  0.218750  0.062500 -0.000000     24.000000
  0.250000  0.062500  0.000000     24.000000
  0.281250  0.062500  0.000000     24.000000
  0.312500  0.062500  0.000000     24.000000
  0.343750  0.062500  0.000000     24.000000
  0.375000  0.062500 -0.000000     24.000000
  0.406250  0.062500 -0.000000     24.000000
  0.437500  0.062500 -0.000000     24.000000
  0.468750  0.062500 -0.000000     24.000000
  0.500000  0.062500  0.000000     24.000000
 -0.468750  0.062500 -0.000000     24.000000
 -0.437500  0.062500 -0.000000     24.000000
 -0.406250  0.062500 -0.000000     24.000000
 -0.375000  0.062500 -0.000000     24.000000
 -0.343750  0.062500  0.000000     24.000000
 -0.312500  0.062500  0.000000     24.000000
 -0.281250  0.062500  0.000000     24.000000
 -0.250000  0.062500  0.000000     24.000000
 -0.218750  0.062500  0.000000     24.000000
 -0.187500  0.062500 -0.000000     24.000000
 -0.156250  0.062500 -0.000000     24.000000
 -0.125000  0.062500  0.000000     24.000000
 -0.093750  0.062500 -0.000000     24.000000
 -0.062500  0.062500 -0.000000     12.000000
  0.093750  0.093750  0.000000      6.000000
  0.125000  0.093750  0.000000     24.000000
  0.156250  0.093750  0.000000     24.000000
  0.187500  0.093750  0.000000     24.000000
  0.218750  0.093750  0.000000     24.000000
  0.250000  0.093750  0.000000     24.000000
  0.281250  0.093750  0.000000     24.000000
  0.312500  0.093750  0.000000     24.000000
  0.343750  0.093750  0.000000     24.000000
  0.375000  0.093750  0.000000     24.000000
  0.406250  0.093750  0.000000     24.000000
  0.437500  0.093750 -0.000000     24.000000
  0.468750  0.093750  0.000000     24.000000
  0.500000  0.093750 -0.000000     24.000000
 -0.468750  0.093750  0.000000     24.000000
 -0.437500  0.093750 -0.000000     24.000000
 -0.406250  0.093750 -0.000000     24.000000
 -0.375000  0.093750 -0.000000     24.000000
 -0.343750  0.093750  0.000000     24.000000
 -0.312500  0.093750  0.000000     24.000000
 -0.281250  0.093750  0.000000     24.000000
 -0.250000  0.093750  0.000000     24.000000
 -0.218750  0.093750 -0.000000     24.000000
 -0.187500  0.093750  0.000000     24.000000
 -0.156250  0.093750  0.000000     24.000000
 -0.125000  0.093750  0.000000     24.000000
 -0.093750  0.093750  0.000000     12.000000
  0.125000  0.125000  0.000000      6.000000
  0.156250  0.125000  0.000000     24.000000
  0.187500  0.125000  0.000000     24.000000
  0.218750  0.125000  0.000000     24.000000
  0.250000  0.125000  0.000000     24.000000
  0.281250  0.125000  0.000000     24.000000
  0.312500  0.125000  0.000000     24.000000
  0.343750  0.125000  0.000000     24.000000
  0.375000  0.125000  0.000000     24.000000
  0.406250  0.125000  0.000000     24.000000
  0.437500  0.125000 -0.000000     24.000000
  0.468750  0.125000 -0.000000     24.000000
  0.500000  0.125000  0.000000     24.000000
 -0.468750  0.125000 -0.000000     24.000000
 -0.437500  0.125000  0.000000     24.000000
 -0.406250  0.125000 -0.000000     24.000000
 -0.375000  0.125000 -0.000000     24.000000
 -0.343750  0.125000 -0.000000     24.000000
 -0.312500  0.125000 -0.000000     24.000000
 -0.281250  0.125000  0.000000     24.000000
 -0.250000  0.125000  0.000000     24.000000
 -0.218750  0.125000  0.000000     24.000000
 -0.187500  0.125000  0.000000     24.000000
 -0.156250  0.125000  0.000000     24.000000
 -0.125000  0.125000 -0.000000     12.000000
  0.156250  0.156250  0.000000      6.000000
  0.187500  0.156250  0.000000     24.000000
  0.218750  0.156250  0.000000     24.000000
  0.250000  0.156250  0.000000     24.000000
  0.281250  0.156250  0.000000     24.000000
  0.312500  0.156250  0.000000     24.000000
  0.343750  0.156250  0.000000     24.000000
  0.375000  0.156250  0.000000     24.000000
  0.406250  0.156250  0.000000     24.000000
  0.437500  0.156250  0.000000     24.000000
  0.468750  0.156250  0.000000     24.000000
  0.500000  0.156250  0.000000     24.000000
 -0.468750  0.156250 -0.000000     24.000000
 -0.437500  0.156250  0.000000     24.000000
 -0.406250  0.156250  0.000000     24.000000
 -0.375000  0.156250 -0.000000     24.000000
 -0.343750  0.156250 -0.000000     24.000000
 -0.312500  0.156250 -0.000000     24.000000
 -0.281250  0.156250 -0.000000     24.000000
 -0.250000  0.156250  0.000000     24.000000
 -0.218750  0.156250 -0.000000     24.000000
 -0.187500  0.156250  0.000000     24.000000
 -0.156250  0.156250  0.000000     12.000000
  0.187500  0.187500  0.000000      6.000000
  0.218750  0.187500  0.000000     24.000000
  0.250000  0.187500  0.000000     24.000000
  0.281250  0.187500  0.000000     24.000000
  0.312500  0.187500  0.000000     24.000000
  0.343750  0.187500  0.000000     24.000000
  0.375000  0.187500  0.000000     24.000000
  0.406250  0.187500  0.000000     24.000000
  0.437500  0.187500  0.000000     24.000000
  0.468750  0.187500  0.000000     24.000000
  0.500000  0.187500  0.000000     24.000000
 -0.468750  0.187500 -0.000000     24.000000
 -0.437500  0.187500 -0.000000     24.000000
 -0.406250  0.187500  0.000000     24.000000
 -0.375000  0.187500  0.000000     24.000000
 -0.343750  0.187500  0.000000     24.000000
 -0.312500  0.187500 -0.000000     24.000000
 -0.281250  0.187500 -0.000000     24.000000
 -0.250000  0.187500 -0.000000     24.000000
 -0.218750  0.187500  0.000000     24.000000
 -0.187500  0.187500  0.000000     12.000000
  0.218750  0.218750  0.000000      6.000000
  0.250000  0.218750  0.000000     24.000000
  0.281250  0.218750  0.000000     24.000000
  0.312500  0.218750  0.000000     24.000000
  0.343750  0.218750  0.000000     24.000000
  0.375000  0.218750  0.000000     24.000000
  0.406250  0.218750  0.000000     24.000000
  0.437500  0.218750  0.000000     24.000000
  0.468750  0.218750  0.000000     24.000000
  0.500000  0.218750  0.000000     24.000000
 -0.468750  0.218750  0.000000     24.000000
 -0.437500  0.218750 -0.000000     24.000000
 -0.406250  0.218750 -0.000000     24.000000
 -0.375000  0.218750  0.000000     24.000000
 -0.343750  0.218750  0.000000     24.000000
 -0.312500  0.218750  0.000000     24.000000
 -0.281250  0.218750 -0.000000     24.000000
 -0.250000  0.218750 -0.000000     24.000000
 -0.218750  0.218750 -0.000000     12.000000
  0.250000  0.250000  0.000000      6.000000
  0.281250  0.250000  0.000000     24.000000
  0.312500  0.250000  0.000000     24.000000
  0.343750  0.250000  0.000000     24.000000
  0.375000  0.250000  0.000000     24.000000
  0.406250  0.250000  0.000000     24.000000
  0.437500  0.250000  0.000000     24.000000
  0.468750  0.250000  0.000000     24.000000
  0.500000  0.250000  0.000000     24.000000
 -0.468750  0.250000 -0.000000     24.000000
 -0.437500  0.250000  0.000000     24.000000
 -0.406250  0.250000 -0.000000     24.000000
 -0.375000  0.250000  0.000000     24.000000
 -0.343750  0.250000  0.000000     24.000000
 -0.312500  0.250000  0.000000     24.000000
 -0.281250  0.250000  0.000000     24.000000
 -0.250000  0.250000 -0.000000     12.000000
  0.281250  0.281250  0.000000      6.000000
  0.312500  0.281250  0.000000     24.000000
  0.343750  0.281250  0.000000     24.000000
  0.375000  0.281250  0.000000     24.000000
  0.406250  0.281250  0.000000     24.000000
  0.437500  0.281250  0.000000     24.000000
  0.468750  0.281250  0.000000     24.000000
  0.500000  0.281250  0.000000     24.000000
 -0.468750  0.281250 -0.000000     24.000000
 -0.437500  0.281250 -0.000000     24.000000
 -0.406250  0.281250  0.000000     24.000000
 -0.375000  0.281250  0.000000     24.000000
 -0.343750  0.281250  0.000000     24.000000
 -0.312500  0.281250  0.000000     24.000000
 -0.281250  0.281250  0.000000     12.000000
  0.312500  0.312500  0.000000      6.000000
  0.343750  0.312500  0.000000     24.000000
  0.375000  0.312500  0.000000     24.000000
  0.406250  0.312500  0.000000     24.000000
  0.437500  0.312500  0.000000     24.000000
  0.468750  0.312500  0.000000     24.000000
  0.500000  0.312500  0.000000     24.000000
 -0.468750  0.312500 -0.000000     24.000000
 -0.437500  0.312500 -0.000000     24.000000
 -0.406250  0.312500 -0.000000     24.000000
 -0.375000  0.312500  0.000000     24.000000
 -0.343750  0.312500  0.000000     24.000000
 -0.312500  0.312500  0.000000     12.000000
  0.343750  0.343750  0.000000      6.000000
  0.375000  0.343750  0.000000     24.000000
  0.406250  0.343750  0.000000     24.000000
  0.437500  0.343750  0.000000     24.000000
  0.468750  0.343750  0.000000     24.000000
  0.500000  0.343750  0.000000     24.000000
 -0.468750  0.343750 -0.000000     24.000000
 -0.437500  0.343750 -0.000000     24.000000
 -0.406250  0.343750 -0.000000     24.000000
 -0.375000  0.343750 -0.000000     24.000000
 -0.343750  0.343750  0.000000     12.000000
  0.375000  0.375000  0.000000      6.000000
  0.406250  0.375000  0.000000     24.000000
  0.437500  0.375000  0.000000     24.000000
  0.468750  0.375000  0.000000     24.000000
  0.500000  0.375000  0.000000     24.000000
 -0.468750  0.375000 -0.000000     24.000000
 -0.437500  0.375000  0.000000     24.000000
 -0.406250  0.375000  0.000000     24.000000
 -0.375000  0.375000  0.000000     12.000000
  0.406250  0.406250  0.000000      6.000000
  0.437500  0.406250  0.000000     24.000000
  0.468750  0.406250  0.000000     24.000000
  0.500000  0.406250  0.000000     24.000000
 -0.468750  0.406250 -0.000000     24.000000
 -0.437500  0.406250 -0.000000     24.000000
 -0.406250  0.406250  0.000000     12.000000
  0.437500  0.437500  0.000000      6.000000
  0.468750  0.437500  0.000000     24.000000
  0.500000  0.437500  0.000000     24.000000
 -0.468750  0.437500 -0.000000     24.000000
 -0.437500  0.437500 -0.000000     12.000000
  0.468750  0.468750  0.000000      6.000000
  0.500000  0.468750  0.000000     24.000000
 -0.468750  0.468750 -0.000000     12.000000
  0.500000  0.500000  0.000000      3.000000
  0.093750  0.062500  0.031250     24.000000
  0.125000  0.062500  0.031250     48.000000
  0.156250  0.062500  0.031250     48.000000
  0.187500  0.062500  0.031250     48.000000
  0.218750  0.062500  0.031250     48.000000
  0.250000  0.062500  0.031250     48.000000
  0.281250  0.062500  0.031250     48.000000
  0.312500  0.062500  0.031250     48.000000
  0.343750  0.062500  0.031250     48.000000
  0.375000  0.062500  0.031250     48.000000
  0.406250  0.062500  0.031250     48.000000
  0.437500  0.062500  0.031250     48.000000
  0.468750  0.062500  0.031250     48.000000
  0.500000  0.062500  0.031250     48.000000
 -0.468750  0.062500  0.031250     24.000000
  0.125000  0.093750  0.031250     24.000000
  0.156250  0.093750  0.031250     48.000000
  0.187500  0.093750  0.031250     48.000000
  0.218750  0.093750  0.031250     48.000000
  0.250000  0.093750  0.031250     48.000000
  0.281250  0.093750  0.031250     48.000000
  0.312500  0.093750  0.031250     48.000000
  0.343750  0.093750  0.031250     48.000000
  0.375000  0.093750  0.031250     48.000000
  0.406250  0.093750  0.031250     48.000000
  0.437500  0.093750  0.031250     48.000000
  0.468750  0.093750  0.031250     48.000000
  0.500000  0.093750  0.031250     48.000000
 -0.468750  0.093750  0.031250     48.000000
 -0.437500  0.093750  0.031250     48.000000
 -0.406250  0.093750  0.031250     48.000000
 -0.375000  0.093750  0.031250     48.000000
 -0.343750  0.093750  0.031250     48.000000
 -0.312500  0.093750  0.031250     48.000000
 -0.281250  0.093750  0.031250     48.000000
 -0.250000  0.093750  0.031250     48.000000
 -0.218750  0.093750  0.031250     48.000000
 -0.187500  0.093750  0.031250     48.000000
 -0.156250  0.093750  0.031250     48.000000
 -0.125000  0.093750  0.031250     48.000000
 -0.093750  0.093750  0.031250     48.000000
 -0.062500  0.093750  0.031250     24.000000
  0.156250  0.125000  0.031250     24.000000
  0.187500  0.125000  0.031250     48.000000
  0.218750  0.125000  0.031250     48.000000
  0.250000  0.125000  0.031250     48.000000
  0.281250  0.125000  0.031250     48.000000
  0.312500  0.125000  0.031250     48.000000
  0.343750  0.125000  0.031250     48.000000
  0.375000  0.125000  0.031250     48.000000
  0.406250  0.125000  0.031250     48.000000
  0.437500  0.125000  0.031250     48.000000
  0.468750  0.125000  0.031250     48.000000
  0.500000  0.125000  0.031250     48.000000
 -0.468750  0.125000  0.031250     48.000000
 -0.437500  0.125000  0.031250     48.000000
 -0.406250  0.125000  0.031250     48.000000
 -0.375000  0.125000  0.031250     48.000000
 -0.343750  0.125000  0.031250     48.000000
 -0.312500  0.125000  0.031250     48.000000
 -0.281250  0.125000  0.031250     48.000000
 -0.250000  0.125000  0.031250     48.000000
 -0.218750  0.125000  0.031250     48.000000
 -0.187500  0.125000  0.031250     48.000000
 -0.156250  0.125000  0.031250     48.000000
 -0.125000  0.125000  0.031250     48.000000
 -0.093750  0.125000  0.031250     24.000000
  0.187500  0.156250  0.031250     24.000000
  0.218750  0.156250  0.031250     48.000000
  0.250000  0.156250  0.031250     48.000000
  0.281250  0.156250  0.031250     48.000000
  0.312500  0.156250  0.031250     48.000000
  0.343750  0.156250  0.031250     48.000000
  0.375000  0.156250  0.031250     48.000000
  0.406250  0.156250  0.031250     48.000000
  0.437500  0.156250  0.031250     48.000000
  0.468750  0.156250  0.031250     48.000000
  0.500000  0.156250  0.031250     48.000000
 -0.468750  0.156250  0.031250     48.000000
 -0.437500  0.156250  0.031250     48.000000
 -0.406250  0.156250  0.031250     48.000000
 -0.375000  0.156250  0.031250     48.000000
 -0.343750  0.156250  0.031250     48.000000
 -0.312500  0.156250  0.031250     48.000000
 -0.281250  0.156250  0.031250     48.000000
 -0.250000  0.156250  0.031250     48.000000
 -0.218750  0.156250  0.031250     48.000000
 -0.187500  0.156250  0.031250     48.000000
 -0.156250  0.156250  0.031250     48.000000
 -0.125000  0.156250  0.031250     24.000000
  0.218750  0.187500  0.031250     24.000000
  0.250000  0.187500  0.031250     48.000000
  0.281250  0.187500  0.031250     48.000000
  0.312500  0.187500  0.031250     48.000000
  0.343750  0.187500  0.031250     48.000000
  0.375000  0.187500  0.031250     48.000000
  0.406250  0.187500  0.031250     48.000000
  0.437500  0.187500  0.031250     48.000000
  0.468750  0.187500  0.031250     48.000000
  0.500000  0.187500  0.031250     48.000000
 -0.468750  0.187500  0.031250     48.000000
 -0.437500  0.187500  0.031250     48.000000
 -0.406250  0.187500  0.031250     48.000000
 -0.375000  0.187500  0.031250     48.000000
 -0.343750  0.187500  0.031250     48.000000
 -0.312500  0.187500  0.031250     48.000000
 -0.281250  0.187500  0.031250     48.000000
 -0.250000  0.187500  0.031250     48.000000
 -0.218750  0.187500  0.031250     48.000000
 -0.187500  0.187500  0.031250     48.000000
 -0.156250  0.187500  0.031250     24.000000
  0.250000  0.218750  0.031250     24.000000
  0.281250  0.218750  0.031250     48.000000
  0.312500  0.218750  0.031250     48.000000
  0.343750  0.218750  0.031250     48.000000
  0.375000  0.218750  0.031250     48.000000
  0.406250  0.218750  0.031250     48.000000
  0.437500  0.218750  0.031250     48.000000
  0.468750  0.218750  0.031250     48.000000
  0.500000  0.218750  0.031250     48.000000
 -0.468750  0.218750  0.031250     48.000000
 -0.437500  0.218750  0.031250     48.000000
 -0.406250  0.218750  0.031250     48.000000
 -0.375000  0.218750  0.031250     48.000000
 -0.343750  0.218750  0.031250     48.000000
 -0.312500  0.218750  0.031250     48.000000
 -0.281250  0.218750  0.031250     48.000000
 -0.250000  0.218750  0.031250     48.000000
 -0.218750  0.218750  0.031250     48.000000
 -0.187500  0.218750  0.031250     24.000000
  0.281250  0.250000  0.031250     24.000000
  0.312500  0.250000  0.031250     48.000000
  0.343750  0.250000  0.031250     48.000000
  0.375000  0.250000  0.031250     48.000000
  0.406250  0.250000  0.031250     48.000000
  0.437500  0.250000  0.031250     48.000000
  0.468750  0.250000  0.031250     48.000000
  0.500000  0.250000  0.031250     48.000000
 -0.468750  0.250000  0.031250     48.000000
 -0.437500  0.250000  0.031250     48.000000
 -0.406250  0.250000  0.031250     48.000000
 -0.375000  0.250000  0.031250     48.000000
 -0.343750  0.250000  0.031250     48.000000
 -0.312500  0.250000  0.031250     48.000000
 -0.281250  0.250000  0.031250     48.000000
 -0.250000  0.250000  0.031250     48.000000
 -0.218750  0.250000  0.031250     24.000000
  0.312500  0.281250  0.031250     24.000000
  0.343750  0.281250  0.031250     48.000000
  0.375000  0.281250  0.031250     48.000000
  0.406250  0.281250  0.031250     48.000000
  0.437500  0.281250  0.031250     48.000000
  0.468750  0.281250  0.031250     48.000000
  0.500000  0.281250  0.031250     48.000000
 -0.468750  0.281250  0.031250     48.000000
 -0.437500  0.281250  0.031250     48.000000
 -0.406250  0.281250  0.031250     48.000000
 -0.375000  0.281250  0.031250     48.000000
 -0.343750  0.281250  0.031250     48.000000
 -0.312500  0.281250  0.031250     48.000000
 -0.281250  0.281250  0.031250     48.000000
 -0.250000  0.281250  0.031250     24.000000
  0.343750  0.312500  0.031250     24.000000
  0.375000  0.312500  0.031250     48.000000
  0.406250  0.312500  0.031250     48.000000
  0.437500  0.312500  0.031250     48.000000
  0.468750  0.312500  0.031250     48.000000
  0.500000  0.312500  0.031250     48.000000
 -0.468750  0.312500  0.031250     48.000000
 -0.437500  0.312500  0.031250     48.000000
 -0.406250  0.312500  0.031250     48.000000
 -0.375000  0.312500  0.031250     48.000000
 -0.343750  0.312500  0.031250     48.000000
 -0.312500  0.312500  0.031250     48.000000
 -0.281250  0.312500  0.031250     24.000000
  0.375000  0.343750  0.031250     24.000000
  0.406250  0.343750  0.031250     48.000000
  0.437500  0.343750  0.031250     48.000000
  0.468750  0.343750  0.031250     48.000000
  0.500000  0.343750  0.031250     48.000000
 -0.468750  0.343750  0.031250     48.000000
 -0.437500  0.343750  0.031250     48.000000
 -0.406250  0.343750  0.031250     48.000000
 -0.375000  0.343750  0.031250     48.000000
 -0.343750  0.343750  0.031250     48.000000
 -0.312500  0.343750  0.031250     24.000000
  0.406250  0.375000  0.031250     24.000000
  0.437500  0.375000  0.031250     48.000000
  0.468750  0.375000  0.031250     48.000000
  0.500000  0.375000  0.031250     48.000000
 -0.468750  0.375000  0.031250     48.000000
 -0.437500  0.375000  0.031250     48.000000
 -0.406250  0.375000  0.031250     48.000000
 -0.375000  0.375000  0.031250     48.000000
 -0.343750  0.375000  0.031250     24.000000
  0.437500  0.406250  0.031250     24.000000
  0.468750  0.406250  0.031250     48.000000
  0.500000  0.406250  0.031250     48.000000
 -0.468750  0.406250  0.031250     48.000000
 -0.437500  0.406250  0.031250     48.000000
 -0.406250  0.406250  0.031250     48.000000
 -0.375000  0.406250  0.031250     24.000000
  0.468750  0.437500  0.031250     24.000000
  0.500000  0.437500  0.031250     48.000000
 -0.468750  0.437500  0.031250     48.000000
 -0.437500  0.437500  0.031250     48.000000
 -0.406250  0.437500  0.031250     24.000000
  0.500000  0.468750  0.031250     24.000000
 -0.468750  0.468750  0.031250     48.000000
 -0.437500  0.468750  0.031250     24.000000
 -0.468750  0.500000  0.031250     12.000000
  0.187500  0.125000  0.062500     24.000000
  0.218750  0.125000  0.062500     48.000000
  0.250000  0.125000  0.062500     48.000000
  0.281250  0.125000  0.062500     48.000000
  0.312500  0.125000  0.062500     48.000000
  0.343750  0.125000  0.062500     48.000000
  0.375000  0.125000  0.062500     48.000000
  0.406250  0.125000  0.062500     48.000000
  0.437500  0.125000  0.062500     48.000000
  0.468750  0.125000  0.062500     48.000000
  0.500000  0.125000  0.062500     48.000000
 -0.468750  0.125000  0.062500     48.000000
 -0.437500  0.125000  0.062500     24.000000
  0.218750  0.156250  0.062500     24.000000
  0.250000  0.156250  0.062500     48.000000
  0.281250  0.156250  0.062500     48.000000
  0.312500  0.156250  0.062500     48.000000
  0.343750  0.156250  0.062500     48.000000
  0.375000  0.156250  0.062500     48.000000
  0.406250  0.156250  0.062500     48.000000
  0.437500  0.156250  0.062500     48.000000
  0.468750  0.156250  0.062500     48.000000
  0.500000  0.156250  0.062500     48.000000
 -0.468750  0.156250  0.062500     48.000000
 -0.437500  0.156250  0.062500     48.000000
 -0.406250  0.156250  0.062500     48.000000
 -0.375000  0.156250  0.062500     48.000000
 -0.343750  0.156250  0.062500     48.000000
 -0.312500  0.156250  0.062500     48.000000
 -0.281250  0.156250  0.062500     48.000000
 -0.250000  0.156250  0.062500     48.000000
 -0.218750  0.156250  0.062500     48.000000
 -0.187500  0.156250  0.062500     48.000000
 -0.156250  0.156250  0.062500     48.000000
 -0.125000  0.156250  0.062500     48.000000
 -0.093750  0.156250  0.062500     24.000000
  0.250000  0.187500  0.062500     24.000000
  0.281250  0.187500  0.062500     48.000000
  0.312500  0.187500  0.062500     48.000000
  0.343750  0.187500  0.062500     48.000000
  0.375000  0.187500  0.062500     48.000000
  0.406250  0.187500  0.062500     48.000000
  0.437500  0.187500  0.062500     48.000000
  0.468750  0.187500  0.062500     48.000000
  0.500000  0.187500  0.062500     48.000000
 -0.468750  0.187500  0.062500     48.000000
 -0.437500  0.187500  0.062500     48.000000
 -0.406250  0.187500  0.062500     48.000000
 -0.375000  0.187500  0.062500     48.000000
 -0.343750  0.187500  0.062500     48.000000
 -0.312500  0.187500  0.062500     48.000000
 -0.281250  0.187500  0.062500     48.000000
 -0.250000  0.187500  0.062500     48.000000
 -0.218750  0.187500  0.062500     48.000000
 -0.187500  0.187500  0.062500     48.000000
 -0.156250  0.187500  0.062500     48.000000
 -0.125000  0.187500  0.062500     24.000000
  0.281250  0.218750  0.062500     24.000000
  0.312500  0.218750  0.062500     48.000000
  0.343750  0.218750  0.062500     48.000000
  0.375000  0.218750  0.062500     48.000000
  0.406250  0.218750  0.062500     48.000000
  0.437500  0.218750  0.062500     48.000000
  0.468750  0.218750  0.062500     48.000000
  0.500000  0.218750  0.062500     48.000000
 -0.468750  0.218750  0.062500     48.000000
 -0.437500  0.218750  0.062500     48.000000
 -0.406250  0.218750  0.062500     48.000000
 -0.375000  0.218750  0.062500     48.000000
 -0.343750  0.218750  0.062500     48.000000
 -0.312500  0.218750  0.062500     48.000000
 -0.281250  0.218750  0.062500     48.000000
 -0.250000  0.218750  0.062500     48.000000
 -0.218750  0.218750  0.062500     48.000000
 -0.187500  0.218750  0.062500     48.000000
 -0.156250  0.218750  0.062500     24.000000
  0.312500  0.250000  0.062500     24.000000
  0.343750  0.250000  0.062500     48.000000
  0.375000  0.250000  0.062500     48.000000
  0.406250  0.250000  0.062500     48.000000
  0.437500  0.250000  0.062500     48.000000
  0.468750  0.250000  0.062500     48.000000
  0.500000  0.250000  0.062500     48.000000
 -0.468750  0.250000  0.062500     48.000000
 -0.437500  0.250000  0.062500     48.000000
 -0.406250  0.250000  0.062500     48.000000
 -0.375000  0.250000  0.062500     48.000000
 -0.343750  0.250000  0.062500     48.000000
 -0.312500  0.250000  0.062500     48.000000
 -0.281250  0.250000  0.062500     48.000000
 -0.250000  0.250000  0.062500     48.000000
 -0.218750  0.250000  0.062500     48.000000
 -0.187500  0.250000  0.062500     24.000000
  0.343750  0.281250  0.062500     24.000000
  0.375000  0.281250  0.062500     48.000000
  0.406250  0.281250  0.062500     48.000000
  0.437500  0.281250  0.062500     48.000000
  0.468750  0.281250  0.062500     48.000000
  0.500000  0.281250  0.062500     48.000000
 -0.468750  0.281250  0.062500     48.000000
 -0.437500  0.281250  0.062500     48.000000
 -0.406250  0.281250  0.062500     48.000000
 -0.375000  0.281250  0.062500     48.000000
 -0.343750  0.281250  0.062500     48.000000
 -0.312500  0.281250  0.062500     48.000000
 -0.281250  0.281250  0.062500     48.000000
 -0.250000  0.281250  0.062500     48.000000
 -0.218750  0.281250  0.062500     24.000000
  0.375000  0.312500  0.062500     24.000000
  0.406250  0.312500  0.062500     48.000000
  0.437500  0.312500  0.062500     48.000000
  0.468750  0.312500  0.062500     48.000000
  0.500000  0.312500  0.062500     48.000000
 -0.468750  0.312500  0.062500     48.000000
 -0.437500  0.312500  0.062500     48.000000
 -0.406250  0.312500  0.062500     48.000000
 -0.375000  0.312500  0.062500     48.000000
 -0.343750  0.312500  0.062500     48.000000
 -0.312500  0.312500  0.062500     48.000000
 -0.281250  0.312500  0.062500     48.000000
 -0.250000  0.312500  0.062500     24.000000
  0.406250  0.343750  0.062500     24.000000
  0.437500  0.343750  0.062500     48.000000
  0.468750  0.343750  0.062500     48.000000
  0.500000  0.343750  0.062500     48.000000
 -0.468750  0.343750  0.062500     48.000000
 -0.437500  0.343750  0.062500     48.000000
 -0.406250  0.343750  0.062500     48.000000
 -0.375000  0.343750  0.062500     48.000000
 -0.343750  0.343750  0.062500     48.000000
 -0.312500  0.343750  0.062500     48.000000
 -0.281250  0.343750  0.062500     24.000000
  0.437500  0.375000  0.062500     24.000000
  0.468750  0.375000  0.062500     48.000000
  0.500000  0.375000  0.062500     48.000000
 -0.468750  0.375000  0.062500     48.000000
 -0.437500  0.375000  0.062500     48.000000
 -0.406250  0.375000  0.062500     48.000000
 -0.375000  0.375000  0.062500     48.000000
 -0.343750  0.375000  0.062500     48.000000
 -0.312500  0.375000  0.062500     24.000000
  0.468750  0.406250  0.062500     24.000000
  0.500000  0.406250  0.062500     48.000000
 -0.468750  0.406250  0.062500     48.000000
 -0.437500  0.406250  0.062500     48.000000
 -0.406250  0.406250  0.062500     48.000000
 -0.375000  0.406250  0.062500     48.000000
 -0.343750  0.406250  0.062500     24.000000
  0.500000  0.437500  0.062500     24.000000
 -0.468750  0.437500  0.062500     48.000000
 -0.437500  0.437500  0.062500     48.000000
 -0.406250  0.437500  0.062500     48.000000
 -0.375000  0.437500  0.062500     24.000000
 -0.468750  0.468750  0.062500     24.000000
 -0.437500  0.468750  0.062500     48.000000
 -0.406250  0.468750  0.062500     24.000000
 -0.437500  0.500000  0.062500     12.000000
  0.281250  0.187500  0.093750     24.000000
  0.312500  0.187500  0.093750     48.000000
  0.343750  0.187500  0.093750     48.000000
  0.375000  0.187500  0.093750     48.000000
  0.406250  0.187500  0.093750     48.000000
  0.437500  0.187500  0.093750     48.000000
  0.468750  0.187500  0.093750     48.000000
  0.500000  0.187500  0.093750     48.000000
 -0.468750  0.187500  0.093750     48.000000
 -0.437500  0.187500  0.093750     48.000000
 -0.406250  0.187500  0.093750     24.000000
  0.312500  0.218750  0.093750     24.000000
  0.343750  0.218750  0.093750     48.000000
  0.375000  0.218750  0.093750     48.000000
  0.406250  0.218750  0.093750     48.000000
  0.437500  0.218750  0.093750     48.000000
  0.468750  0.218750  0.093750     48.000000
  0.500000  0.218750  0.093750     48.000000
 -0.468750  0.218750  0.093750     48.000000
 -0.437500  0.218750  0.093750     48.000000
 -0.406250  0.218750  0.093750     48.000000
 -0.375000  0.218750  0.093750     48.000000
 -0.343750  0.218750  0.093750     48.000000
 -0.312500  0.218750  0.093750     48.000000
 -0.281250  0.218750  0.093750     48.000000
 -0.250000  0.218750  0.093750     48.000000
 -0.218750  0.218750  0.093750     48.000000
 -0.187500  0.218750  0.093750     48.000000
 -0.156250  0.218750  0.093750     48.000000
 -0.125000  0.218750  0.093750     24.000000
  0.343750  0.250000  0.093750     24.000000
  0.375000  0.250000  0.093750     48.000000
  0.406250  0.250000  0.093750     48.000000
  0.437500  0.250000  0.093750     48.000000
  0.468750  0.250000  0.093750     48.000000
  0.500000  0.250000  0.093750     48.000000
 -0.468750  0.250000  0.093750     48.000000
 -0.437500  0.250000  0.093750     48.000000
 -0.406250  0.250000  0.093750     48.000000
 -0.375000  0.250000  0.093750     48.000000
 -0.343750  0.250000  0.093750     48.000000
 -0.312500  0.250000  0.093750     48.000000
 -0.281250  0.250000  0.093750     48.000000
 -0.250000  0.250000  0.093750     48.000000
 -0.218750  0.250000  0.093750     48.000000
 -0.187500  0.250000  0.093750     48.000000
 -0.156250  0.250000  0.093750     24.000000
  0.375000  0.281250  0.093750     24.000000
  0.406250  0.281250  0.093750     48.000000
  0.437500  0.281250  0.093750     48.000000
  0.468750  0.281250  0.093750     48.000000
  0.500000  0.281250  0.093750     48.000000
 -0.468750  0.281250  0.093750     48.000000
 -0.437500  0.281250  0.093750     48.000000
 -0.406250  0.281250  0.093750     48.000000
 -0.375000  0.281250  0.093750     48.000000
 -0.343750  0.281250  0.093750     48.000000
 -0.312500  0.281250  0.093750     48.000000
 -0.281250  0.281250  0.093750     48.000000
 -0.250000  0.281250  0.093750     48.000000
 -0.218750  0.281250  0.093750     48.000000
 -0.187500  0.281250  0.093750     24.000000
  0.406250  0.312500  0.093750     24.000000
  0.437500  0.312500  0.093750     48.000000
  0.468750  0.312500  0.093750     48.000000
  0.500000  0.312500  0.093750     48.000000
 -0.468750  0.312500  0.093750     48.000000
 -0.437500  0.312500  0.093750     48.000000
 -0.406250  0.312500  0.093750     48.000000
 -0.375000  0.312500  0.093750     48.000000
 -0.343750  0.312500  0.093750     48.000000
 -0.312500  0.312500  0.093750     48.000000
 -0.281250  0.312500  0.093750     48.000000
 -0.250000  0.312500  0.093750     48.000000
 -0.218750  0.312500  0.093750     24.000000
  0.437500  0.343750  0.093750     24.000000
  0.468750  0.343750  0.093750     48.000000
  0.500000  0.343750  0.093750     48.000000
 -0.468750  0.343750  0.093750     48.000000
 -0.437500  0.343750  0.093750     48.000000
 -0.406250  0.343750  0.093750     48.000000
 -0.375000  0.343750  0.093750     48.000000
 -0.343750  0.343750  0.093750     48.000000
 -0.312500  0.343750  0.093750     48.000000
 -0.281250  0.343750  0.093750     48.000000
 -0.250000  0.343750  0.093750     24.000000
  0.468750  0.375000  0.093750     24.000000
  0.500000  0.375000  0.093750     48.000000
 -0.468750  0.375000  0.093750     48.000000
 -0.437500  0.375000  0.093750     48.000000
 -0.406250  0.375000  0.093750     48.000000
 -0.375000  0.375000  0.093750     48.000000
 -0.343750  0.375000  0.093750     48.000000
 -0.312500  0.375000  0.093750     48.000000
 -0.281250  0.375000  0.093750     24.000000
  0.500000  0.406250  0.093750     24.000000
 -0.468750  0.406250  0.093750     48.000000
 -0.437500  0.406250  0.093750     48.000000
 -0.406250  0.406250  0.093750     48.000000
 -0.375000  0.406250  0.093750     48.000000
 -0.343750  0.406250  0.093750     48.000000
 -0.312500  0.406250  0.093750     24.000000
 -0.468750  0.437500  0.093750     24.000000
 -0.437500  0.437500  0.093750     48.000000
 -0.406250  0.437500  0.093750     48.000000
 -0.375000  0.437500  0.093750     48.000000
 -0.343750  0.437500  0.093750     24.000000
 -0.437500  0.468750  0.093750     24.000000
 -0.406250  0.468750  0.093750     48.000000
 -0.375000  0.468750  0.093750     24.000000
 -0.406250  0.500000  0.093750     12.000000
  0.375000  0.250000  0.125000     24.000000
  0.406250  0.250000  0.125000     48.000000
  0.437500  0.250000  0.125000     48.000000
  0.468750  0.250000  0.125000     48.000000
  0.500000  0.250000  0.125000     48.000000
 -0.468750  0.250000  0.125000     48.000000
 -0.437500  0.250000  0.125000     48.000000
 -0.406250  0.250000  0.125000     48.000000
 -0.375000  0.250000  0.125000     24.000000
  0.406250  0.281250  0.125000     24.000000
  0.437500  0.281250  0.125000     48.000000
  0.468750  0.281250  0.125000     48.000000
  0.500000  0.281250  0.125000     48.000000
 -0.468750  0.281250  0.125000     48.000000
 -0.437500  0.281250  0.125000     48.000000
 -0.406250  0.281250  0.125000     48.000000
 -0.375000  0.281250  0.125000     48.000000
 -0.343750  0.281250  0.125000     48.000000
 -0.312500  0.281250  0.125000     48.000000
 -0.281250  0.281250  0.125000     48.000000
 -0.250000  0.281250  0.125000     48.000000
 -0.218750  0.281250  0.125000     48.000000
 -0.187500  0.281250  0.125000     48.000000
 -0.156250  0.281250  0.125000     24.000000
  0.437500  0.312500  0.125000     24.000000
  0.468750  0.312500  0.125000     48.000000
  0.500000  0.312500  0.125000     48.000000
 -0.468750  0.312500  0.125000     48.000000
 -0.437500  0.312500  0.125000     48.000000
 -0.406250  0.312500  0.125000     48.000000
 -0.375000  0.312500  0.125000     48.000000
 -0.343750  0.312500  0.125000     48.000000
 -0.312500  0.312500  0.125000     48.000000
 -0.281250  0.312500  0.125000     48.000000
 -0.250000  0.312500  0.125000     48.000000
 -0.218750  0.312500  0.125000     48.000000
 -0.187500  0.312500  0.125000     24.000000
  0.468750  0.343750  0.125000     24.000000
  0.500000  0.343750  0.125000     48.000000
 -0.468750  0.343750  0.125000     48.000000
 -0.437500  0.343750  0.125000     48.000000
 -0.406250  0.343750  0.125000     48.000000
 -0.375000  0.343750  0.125000     48.000000
 -0.343750  0.343750  0.125000     48.000000
 -0.312500  0.343750  0.125000     48.000000
 -0.281250  0.343750  0.125000     48.000000
 -0.250000  0.343750  0.125000     48.000000
 -0.218750  0.343750  0.125000     24.000000
  0.500000  0.375000  0.125000     24.000000
 -0.468750  0.375000  0.125000     48.000000
 -0.437500  0.375000  0.125000     48.000000
 -0.406250  0.375000  0.125000     48.000000
 -0.375000  0.375000  0.125000     48.000000
 -0.343750  0.375000  0.125000     48.000000
 -0.312500  0.375000  0.125000     48.000000
 -0.281250  0.375000  0.125000     48.000000
 -0.250000  0.375000  0.125000     24.000000
 -0.468750  0.406250  0.125000     24.000000
 -0.437500  0.406250  0.125000     48.000000
 -0.406250  0.406250  0.125000     48.000000
 -0.375000  0.406250  0.125000     48.000000
 -0.343750  0.406250  0.125000     48.000000
 -0.312500  0.406250  0.125000     48.000000
 -0.281250  0.406250  0.125000     24.000000
 -0.437500  0.437500  0.125000     24.000000
 -0.406250  0.437500  0.125000     48.000000
 -0.375000  0.437500  0.125000     48.000000
 -0.343750  0.437500  0.125000     48.000000
 -0.312500  0.437500  0.125000     24.000000
 -0.406250  0.468750  0.125000     24.000000
 -0.375000  0.468750  0.125000     48.000000
 -0.343750  0.468750  0.125000     24.000000
 -0.375000  0.500000  0.125000     12.000000
  0.468750  0.312500  0.156250     24.000000
  0.500000  0.312500  0.156250     48.000000
 -0.468750  0.312500  0.156250     48.000000
 -0.437500  0.312500  0.156250     48.000000
 -0.406250  0.312500  0.156250     48.000000
 -0.375000  0.312500  0.156250     48.000000
 -0.343750  0.312500  0.156250     24.000000
  0.500000  0.343750  0.156250     24.000000
 -0.468750  0.343750  0.156250     48.000000
 -0.437500  0.343750  0.156250     48.000000
 -0.406250  0.343750  0.156250     48.000000
 -0.375000  0.343750  0.156250     48.000000
 -0.343750  0.343750  0.156250     48.000000
 -0.312500  0.343750  0.156250     48.000000
 -0.281250  0.343750  0.156250     48.000000
 -0.250000  0.343750  0.156250     48.000000
 -0.218750  0.343750  0.156250     48.000000
 -0.187500  0.343750  0.156250     24.000000
 -0.468750  0.375000  0.156250     24.000000
 -0.437500  0.375000  0.156250     48.000000
 -0.406250  0.375000  0.156250     48.000000
 -0.375000  0.375000  0.156250     48.000000
 -0.343750  0.375000  0.156250     48.000000
 -0.312500  0.375000  0.156250     48.000000
 -0.281250  0.375000  0.156250     48.000000
 -0.250000  0.375000  0.156250     48.000000
 -0.218750  0.375000  0.156250     24.000000
 -0.437500  0.406250  0.156250     24.000000
 -0.406250  0.406250  0.156250     48.000000
 -0.375000  0.406250  0.156250     48.000000
 -0.343750  0.406250  0.156250     48.000000
 -0.312500  0.406250  0.156250     48.000000
 -0.281250  0.406250  0.156250     48.000000
 -0.250000  0.406250  0.156250     24.000000
 -0.406250  0.437500  0.156250     24.000000
 -0.375000  0.437500  0.156250     48.000000
 -0.343750  0.437500  0.156250     48.000000
 -0.312500  0.437500  0.156250     48.000000
 -0.281250  0.437500  0.156250     24.000000
 -0.375000  0.468750  0.156250     24.000000
 -0.343750  0.468750  0.156250     48.000000
 -0.312500  0.468750  0.156250     24.000000
 -0.343750  0.500000  0.156250     12.000000
 -0.437500  0.375000  0.187500     24.000000
 -0.406250  0.375000  0.187500     48.000000
 -0.375000  0.375000  0.187500     48.000000
 -0.343750  0.375000  0.187500     48.000000
 -0.312500  0.375000  0.187500     24.000000
 -0.406250  0.406250  0.187500     24.000000
 -0.375000  0.406250  0.187500     48.000000
 -0.343750  0.406250  0.187500     48.000000
 -0.312500  0.406250  0.187500     48.000000
 -0.281250  0.406250  0.187500     48.000000
 -0.250000  0.406250  0.187500     48.000000
 -0.218750  0.406250  0.187500     24.000000
 -0.375000  0.437500  0.187500     24.000000
 -0.343750  0.437500  0.187500     48.000000
 -0.312500  0.437500  0.187500     48.000000
 -0.281250  0.437500  0.187500     48.000000
 -0.250000  0.437500  0.187500     24.000000
 -0.343750  0.468750  0.187500     24.000000
 -0.312500  0.468750  0.187500     48.000000
 -0.281250  0.468750  0.187500     24.000000
 -0.312500  0.500000  0.187500     12.000000
 -0.343750  0.437500  0.218750     24.000000
 -0.312500  0.437500  0.218750     48.000000
 -0.281250  0.437500  0.218750     24.000000
 -0.312500  0.468750  0.218750     24.000000
 -0.281250  0.468750  0.218750     48.000000
 -0.250000  0.468750  0.218750     24.000000
 -0.281250  0.500000  0.218750     12.000000
 -0.250000  0.500000  0.250000      6.000000
 
 Following cartesian coordinates:
            Coordinates               Weight
  0.000000  0.000000  0.000000      1.000000
 -0.002850  0.002850  0.002850      8.000000
 -0.005699  0.005699  0.005699      8.000000
 -0.008549  0.008549  0.008549      8.000000
 -0.011399  0.011399  0.011399      8.000000
 -0.014248  0.014248  0.014248      8.000000
 -0.017098  0.017098  0.017098      8.000000
 -0.019948  0.019948  0.019948      8.000000
 -0.022797  0.022797  0.022797      8.000000
 -0.025647  0.025647  0.025647      8.000000
 -0.028497  0.028497  0.028497      8.000000
 -0.031346  0.031346  0.031346      8.000000
 -0.034196  0.034196  0.034196      8.000000
 -0.037046  0.037046  0.037046      8.000000
 -0.039895  0.039895  0.039895      8.000000
 -0.042745  0.042745  0.042745      8.000000
 -0.045595  0.045595  0.045595      4.000000
  0.000000  0.000000  0.005699      6.000000
 -0.002850  0.002850  0.008549     24.000000
 -0.005699  0.005699  0.011399     24.000000
 -0.008549  0.008549  0.014248     24.000000
 -0.011399  0.011399  0.017098     24.000000
 -0.014248  0.014248  0.019948     24.000000
 -0.017098  0.017098  0.022797     24.000000
 -0.019948  0.019948  0.025647     24.000000
 -0.022797  0.022797  0.028497     24.000000
 -0.025647  0.025647  0.031346     24.000000
 -0.028497  0.028497  0.034196     24.000000
 -0.031346  0.031346  0.037046     24.000000
 -0.034196  0.034196  0.039895     24.000000
 -0.037046  0.037046  0.042745     24.000000
 -0.039895  0.039895  0.045595     24.000000
 -0.042745  0.042745  0.048444     24.000000
  0.045595 -0.045595 -0.039895     24.000000
  0.042745 -0.042745 -0.037046     24.000000
  0.039895 -0.039895 -0.034196     24.000000
  0.037046 -0.037046 -0.031346     24.000000
  0.034196 -0.034196 -0.028497     24.000000
  0.031346 -0.031346 -0.025647     24.000000
  0.028497 -0.028497 -0.022797     24.000000
  0.025647 -0.025647 -0.019948     24.000000
  0.022797 -0.022797 -0.017098     24.000000
  0.019948 -0.019948 -0.014248     24.000000
  0.017098 -0.017098 -0.011399     24.000000
  0.014248 -0.014248 -0.008549     24.000000
  0.011399 -0.011399 -0.005699     24.000000
  0.008549 -0.008549 -0.002850     24.000000
  0.005699 -0.005699  0.000000     12.000000
  0.000000  0.000000  0.011399      6.000000
 -0.002850  0.002850  0.014248     24.000000
 -0.005699  0.005699  0.017098     24.000000
 -0.008549  0.008549  0.019948     24.000000
 -0.011399  0.011399  0.022797     24.000000
 -0.014248  0.014248  0.025647     24.000000
 -0.017098  0.017098  0.028497     24.000000
 -0.019948  0.019948  0.031346     24.000000
 -0.022797  0.022797  0.034196     24.000000
 -0.025647  0.025647  0.037046     24.000000
 -0.028497  0.028497  0.039895     24.000000
 -0.031346  0.031346  0.042745     24.000000
 -0.034196  0.034196  0.045595     24.000000
 -0.037046  0.037046  0.048444     24.000000
 -0.039895  0.039895  0.051294     24.000000
  0.048444 -0.048444 -0.037046     24.000000
  0.045595 -0.045595 -0.034196     24.000000
  0.042745 -0.042745 -0.031346     24.000000
  0.039895 -0.039895 -0.028497     24.000000
  0.037046 -0.037046 -0.025647     24.000000
  0.034196 -0.034196 -0.022797     24.000000
  0.031346 -0.031346 -0.019948     24.000000
  0.028497 -0.028497 -0.017098     24.000000
  0.025647 -0.025647 -0.014248     24.000000
  0.022797 -0.022797 -0.011399     24.000000
  0.019948 -0.019948 -0.008549     24.000000
  0.017098 -0.017098 -0.005699     24.000000
  0.014248 -0.014248 -0.002850     24.000000
  0.011399 -0.011399  0.000000     12.000000
  0.000000  0.000000  0.017098      6.000000
 -0.002850  0.002850  0.019948     24.000000
 -0.005699  0.005699  0.022797     24.000000
 -0.008549  0.008549  0.025647     24.000000
 -0.011399  0.011399  0.028497     24.000000
 -0.014248  0.014248  0.031346     24.000000
 -0.017098  0.017098  0.034196     24.000000
 -0.019948  0.019948  0.037046     24.000000
 -0.022797  0.022797  0.039895     24.000000
 -0.025647  0.025647  0.042745     24.000000
 -0.028497  0.028497  0.045595     24.000000
 -0.031346  0.031346  0.048444     24.000000
 -0.034196  0.034196  0.051294     24.000000
 -0.037046  0.037046  0.054144     24.000000
  0.051294 -0.051294 -0.034196     24.000000
  0.048444 -0.048444 -0.031346     24.000000
  0.045595 -0.045595 -0.028497     24.000000
  0.042745 -0.042745 -0.025647     24.000000
  0.039895 -0.039895 -0.022797     24.000000
  0.037046 -0.037046 -0.019948     24.000000
  0.034196 -0.034196 -0.017098     24.000000
  0.031346 -0.031346 -0.014248     24.000000
  0.028497 -0.028497 -0.011399     24.000000
  0.025647 -0.025647 -0.008549     24.000000
  0.022797 -0.022797 -0.005699     24.000000
  0.019948 -0.019948 -0.002850     24.000000
  0.017098 -0.017098 -0.000000     12.000000
  0.000000  0.000000  0.022797      6.000000
 -0.002850  0.002850  0.025647     24.000000
 -0.005699  0.005699  0.028497     24.000000
 -0.008549  0.008549  0.031346     24.000000
 -0.011399  0.011399  0.034196     24.000000
 -0.014248  0.014248  0.037046     24.000000
 -0.017098  0.017098  0.039895     24.000000
 -0.019948  0.019948  0.042745     24.000000
 -0.022797  0.022797  0.045595     24.000000
 -0.025647  0.025647  0.048444     24.000000
 -0.028497  0.028497  0.051294     24.000000
 -0.031346  0.031346  0.054144     24.000000
 -0.034196  0.034196  0.056993     24.000000
  0.054144 -0.054144 -0.031346     24.000000
  0.051294 -0.051294 -0.028497     24.000000
  0.048444 -0.048444 -0.025647     24.000000
  0.045595 -0.045595 -0.022797     24.000000
  0.042745 -0.042745 -0.019948     24.000000
  0.039895 -0.039895 -0.017098     24.000000
  0.037046 -0.037046 -0.014248     24.000000
  0.034196 -0.034196 -0.011399     24.000000
  0.031346 -0.031346 -0.008549     24.000000
  0.028497 -0.028497 -0.005699     24.000000
  0.025647 -0.025647 -0.002850     24.000000
  0.022797 -0.022797  0.000000     12.000000
  0.000000 -0.000000  0.028497      6.000000
 -0.002850  0.002850  0.031346     24.000000
 -0.005699  0.005699  0.034196     24.000000
 -0.008549  0.008549  0.037046     24.000000
 -0.011399  0.011399  0.039895     24.000000
 -0.014248  0.014248  0.042745     24.000000
 -0.017098  0.017098  0.045595     24.000000
 -0.019948  0.019948  0.048444     24.000000
 -0.022797  0.022797  0.051294     24.000000
 -0.025647  0.025647  0.054144     24.000000
 -0.028497  0.028497  0.056993     24.000000
 -0.031346  0.031346  0.059843     24.000000
  0.056993 -0.056993 -0.028497     24.000000
  0.054144 -0.054144 -0.025647     24.000000
  0.051294 -0.051294 -0.022797     24.000000
  0.048444 -0.048444 -0.019948     24.000000
  0.045595 -0.045595 -0.017098     24.000000
  0.042745 -0.042745 -0.014248     24.000000
  0.039895 -0.039895 -0.011399     24.000000
  0.037046 -0.037046 -0.008549     24.000000
  0.034196 -0.034196 -0.005699     24.000000
  0.031346 -0.031346 -0.002850     24.000000
  0.028497 -0.028497  0.000000     12.000000
  0.000000  0.000000  0.034196      6.000000
 -0.002850  0.002850  0.037046     24.000000
 -0.005699  0.005699  0.039895     24.000000
 -0.008549  0.008549  0.042745     24.000000
 -0.011399  0.011399  0.045595     24.000000
 -0.014248  0.014248  0.048444     24.000000
 -0.017098  0.017098  0.051294     24.000000
 -0.019948  0.019948  0.054144     24.000000
 -0.022797  0.022797  0.056993     24.000000
 -0.025647  0.025647  0.059843     24.000000
 -0.028497  0.028497  0.062693     24.000000
  0.059843 -0.059843 -0.025647     24.000000
  0.056993 -0.056993 -0.022797     24.000000
  0.054144 -0.054144 -0.019948     24.000000
  0.051294 -0.051294 -0.017098     24.000000
  0.048444 -0.048444 -0.014248     24.000000
  0.045595 -0.045595 -0.011399     24.000000
  0.042745 -0.042745 -0.008549     24.000000
  0.039895 -0.039895 -0.005699     24.000000
  0.037046 -0.037046 -0.002850     24.000000
  0.034196 -0.034196 -0.000000     12.000000
  0.000000  0.000000  0.039895      6.000000
 -0.002850  0.002850  0.042745     24.000000
 -0.005699  0.005699  0.045595     24.000000
 -0.008549  0.008549  0.048444     24.000000
 -0.011399  0.011399  0.051294     24.000000
 -0.014248  0.014248  0.054144     24.000000
 -0.017098  0.017098  0.056993     24.000000
 -0.019948  0.019948  0.059843     24.000000
 -0.022797  0.022797  0.062693     24.000000
 -0.025647  0.025647  0.065542     24.000000
  0.062693 -0.062693 -0.022797     24.000000
  0.059843 -0.059843 -0.019948     24.000000
  0.056993 -0.056993 -0.017098     24.000000
  0.054144 -0.054144 -0.014248     24.000000
  0.051294 -0.051294 -0.011399     24.000000
  0.048444 -0.048444 -0.008549     24.000000
  0.045595 -0.045595 -0.005699     24.000000
  0.042745 -0.042745 -0.002850     24.000000
  0.039895 -0.039895  0.000000     12.000000
  0.000000  0.000000  0.045595      6.000000
 -0.002850  0.002850  0.048444     24.000000
 -0.005699  0.005699  0.051294     24.000000
 -0.008549  0.008549  0.054144     24.000000
 -0.011399  0.011399  0.056993     24.000000
 -0.014248  0.014248  0.059843     24.000000
 -0.017098  0.017098  0.062693     24.000000
 -0.019948  0.019948  0.065542     24.000000
 -0.022797  0.022797  0.068392     24.000000
  0.065542 -0.065542 -0.019948     24.000000
  0.062693 -0.062693 -0.017098     24.000000
  0.059843 -0.059843 -0.014248     24.000000
  0.056993 -0.056993 -0.011399     24.000000
  0.054144 -0.054144 -0.008549     24.000000
  0.051294 -0.051294 -0.005699     24.000000
  0.048444 -0.048444 -0.002850     24.000000
  0.045595 -0.045595  0.000000     12.000000
  0.000000  0.000000  0.051294      6.000000
 -0.002850  0.002850  0.054144     24.000000
 -0.005699  0.005699  0.056993     24.000000
 -0.008549  0.008549  0.059843     24.000000
 -0.011399  0.011399  0.062693     24.000000
 -0.014248  0.014248  0.065542     24.000000
 -0.017098  0.017098  0.068392     24.000000
 -0.019948  0.019948  0.071242     24.000000
  0.068392 -0.068392 -0.017098     24.000000
  0.065542 -0.065542 -0.014248     24.000000
  0.062693 -0.062693 -0.011399     24.000000
  0.059843 -0.059843 -0.008549     24.000000
  0.056993 -0.056993 -0.005699     24.000000
  0.054144 -0.054144 -0.002850     24.000000
  0.051294 -0.051294  0.000000     12.000000
  0.000000 -0.000000  0.056993      6.000000
 -0.002850  0.002850  0.059843     24.000000
 -0.005699  0.005699  0.062693     24.000000
 -0.008549  0.008549  0.065542     24.000000
 -0.011399  0.011399  0.068392     24.000000
 -0.014248  0.014248  0.071242     24.000000
 -0.017098  0.017098  0.074091     24.000000
  0.071242 -0.071242 -0.014248     24.000000
  0.068392 -0.068392 -0.011399     24.000000
  0.065542 -0.065542 -0.008549     24.000000
  0.062693 -0.062693 -0.005699     24.000000
  0.059843 -0.059843 -0.002850     24.000000
  0.056993 -0.056993  0.000000     12.000000
  0.000000 -0.000000  0.062693      6.000000
 -0.002850  0.002850  0.065542     24.000000
 -0.005699  0.005699  0.068392     24.000000
 -0.008549  0.008549  0.071242     24.000000
 -0.011399  0.011399  0.074091     24.000000
 -0.014248  0.014248  0.076941     24.000000
  0.074091 -0.074091 -0.011399     24.000000
  0.071242 -0.071242 -0.008549     24.000000
  0.068392 -0.068392 -0.005699     24.000000
  0.065542 -0.065542 -0.002850     24.000000
  0.062693 -0.062693  0.000000     12.000000
  0.000000  0.000000  0.068392      6.000000
 -0.002850  0.002850  0.071242     24.000000
 -0.005699  0.005699  0.074091     24.000000
 -0.008549  0.008549  0.076941     24.000000
 -0.011399  0.011399  0.079791     24.000000
  0.076941 -0.076941 -0.008549     24.000000
  0.074091 -0.074091 -0.005699     24.000000
  0.071242 -0.071242 -0.002850     24.000000
  0.068392 -0.068392 -0.000000     12.000000
  0.000000  0.000000  0.074091      6.000000
 -0.002850  0.002850  0.076941     24.000000
 -0.005699  0.005699  0.079791     24.000000
 -0.008549  0.008549  0.082640     24.000000
  0.079791 -0.079791 -0.005699     24.000000
  0.076941 -0.076941 -0.002850     24.000000
  0.074091 -0.074091  0.000000     12.000000
  0.000000  0.000000  0.079791      6.000000
 -0.002850  0.002850  0.082640     24.000000
 -0.005699  0.005699  0.085490     24.000000
  0.082640 -0.082640 -0.002850     24.000000
  0.079791 -0.079791  0.000000     12.000000
  0.000000  0.000000  0.085490      6.000000
 -0.002850  0.002850  0.088340     24.000000
  0.085490 -0.085490 -0.000000     12.000000
  0.000000  0.000000  0.091189      3.000000
  0.000000  0.005699  0.011399     24.000000
 -0.002850  0.008549  0.014248     48.000000
 -0.005699  0.011399  0.017098     48.000000
 -0.008549  0.014248  0.019948     48.000000
 -0.011399  0.017098  0.022797     48.000000
 -0.014248  0.019948  0.025647     48.000000
 -0.017098  0.022797  0.028497     48.000000
 -0.019948  0.025647  0.031346     48.000000
 -0.022797  0.028497  0.034196     48.000000
 -0.025647  0.031346  0.037046     48.000000
 -0.028497  0.034196  0.039895     48.000000
 -0.031346  0.037046  0.042745     48.000000
 -0.034196  0.039895  0.045595     48.000000
 -0.037046  0.042745  0.048444     48.000000
  0.051294 -0.045595 -0.039895     24.000000
 -0.000000  0.005699  0.017098     24.000000
 -0.002850  0.008549  0.019948     48.000000
 -0.005699  0.011399  0.022797     48.000000
 -0.008549  0.014248  0.025647     48.000000
 -0.011399  0.017098  0.028497     48.000000
 -0.014248  0.019948  0.031346     48.000000
 -0.017098  0.022797  0.034196     48.000000
 -0.019948  0.025647  0.037046     48.000000
 -0.022797  0.028497  0.039895     48.000000
 -0.025647  0.031346  0.042745     48.000000
 -0.028497  0.034196  0.045595     48.000000
 -0.031346  0.037046  0.048444     48.000000
 -0.034196  0.039895  0.051294     48.000000
  0.054144 -0.048444 -0.037046     48.000000
  0.051294 -0.045595 -0.034196     48.000000
  0.048444 -0.042745 -0.031346     48.000000
  0.045595 -0.039895 -0.028497     48.000000
  0.042745 -0.037046 -0.025647     48.000000
  0.039895 -0.034196 -0.022797     48.000000
  0.037046 -0.031346 -0.019948     48.000000
  0.034196 -0.028497 -0.017098     48.000000
  0.031346 -0.025647 -0.014248     48.000000
  0.028497 -0.022797 -0.011399     48.000000
  0.025647 -0.019948 -0.008549     48.000000
  0.022797 -0.017098 -0.005699     48.000000
  0.019948 -0.014248 -0.002850     48.000000
  0.017098 -0.011399  0.000000     24.000000
  0.000000  0.005699  0.022797     24.000000
 -0.002850  0.008549  0.025647     48.000000
 -0.005699  0.011399  0.028497     48.000000
 -0.008549  0.014248  0.031346     48.000000
 -0.011399  0.017098  0.034196     48.000000
 -0.014248  0.019948  0.037046     48.000000
 -0.017098  0.022797  0.039895     48.000000
 -0.019948  0.025647  0.042745     48.000000
 -0.022797  0.028497  0.045595     48.000000
 -0.025647  0.031346  0.048444     48.000000
 -0.028497  0.034196  0.051294     48.000000
 -0.031346  0.037046  0.054144     48.000000
  0.056993 -0.051294 -0.034196     48.000000
  0.054144 -0.048444 -0.031346     48.000000
  0.051294 -0.045595 -0.028497     48.000000
  0.048444 -0.042745 -0.025647     48.000000
[...]
     26      -1.7842      2.00000
     27      -1.7274      2.00000
     28      -1.5752      2.00000
     29      -1.4033      2.00000
     30      -1.3734      2.00000
     31      -1.2957      2.00000
     32      -1.1957      2.00000
     33      -1.0598      2.00000
     34      -1.0420      2.00000
     35      -1.0214      2.00000
     36      -0.7482      2.00000
     37      -0.6457      2.00000
     38       2.4716      0.00000
     39       5.9817      0.00000
     40       6.4954      0.00000
     41       6.7296      0.00000
     42       7.3006      0.00000
     43       7.3872      0.00000
     44       7.5366      0.00000

 k-point   891 :      -0.3125    0.4375    0.2188
  band No.  band energies     occupation 
      1     -21.9371      2.00000
      2     -21.9371      2.00000
      3     -21.8234      2.00000
      4     -21.8233      2.00000
      5     -21.8233      2.00000
      6     -20.4458      2.00000
      7     -20.4453      2.00000
      8     -14.6209      2.00000
      9     -14.0934      2.00000
     10     -14.0615      2.00000
     11     -14.0533      2.00000
     12     -13.7807      2.00000
     13     -13.7282      2.00000
     14      -6.9199      2.00000
     15      -6.8975      2.00000
     16      -6.8930      2.00000
     17      -6.8842      2.00000
     18      -6.8588      2.00000
     19      -6.8537      2.00000
     20      -6.6330      2.00000
     21      -3.4951      2.00000
     22      -3.3644      2.00000
     23      -3.3222      2.00000
     24      -2.2494      2.00000
     25      -2.1900      2.00000
     26      -1.7735      2.00000
     27      -1.7167      2.00000
     28      -1.5869      2.00000
     29      -1.4045      2.00000
     30      -1.3795      2.00000
     31      -1.2756      2.00000
     32      -1.2213      2.00000
     33      -1.0727      2.00000
     34      -1.0458      2.00000
     35      -1.0210      2.00000
     36      -0.7249      2.00000
     37      -0.6727      2.00000
     38       2.4819      0.00000
     39       6.0087      0.00000
     40       6.5135      0.00000
     41       6.6449      0.00000
     42       7.3034      0.00000
     43       7.4258      0.00000
     44       7.5425      0.00000

 k-point   892 :      -0.2812    0.4375    0.2188
  band No.  band energies     occupation 
      1     -21.9371      2.00000
      2     -21.9371      2.00000
      3     -21.8234      2.00000
      4     -21.8233      2.00000
      5     -21.8233      2.00000
      6     -20.4456      2.00000
      7     -20.4456      2.00000
      8     -14.6206      2.00000
      9     -14.0927      2.00000
     10     -14.0602      2.00000
     11     -14.0558      2.00000
     12     -13.7802      2.00000
     13     -13.7289      2.00000
     14      -6.9197      2.00000
     15      -6.8950      2.00000
     16      -6.8942      2.00000
     17      -6.8848      2.00000
     18      -6.8582      2.00000
     19      -6.8537      2.00000
     20      -6.6320      2.00000
     21      -3.4921      2.00000
     22      -3.3516      2.00000
     23      -3.3375      2.00000
     24      -2.2247      2.00000
     25      -2.2185      2.00000
     26      -1.7696      2.00000
     27      -1.7120      2.00000
     28      -1.5919      2.00000
     29      -1.4066      2.00000
     30      -1.3804      2.00000
     31      -1.2576      2.00000
     32      -1.2407      2.00000
     33      -1.0772      2.00000
     34      -1.0472      2.00000
     35      -1.0206      2.00000
     36      -0.7001      2.00000
     37      -0.6988      2.00000
     38       2.4854      0.00000
     39       6.0107      0.00000
     40       6.5047      0.00000
     41       6.6833      0.00000
     42       7.3761      0.00000
     43       7.4692      0.00000
     44       7.6049      0.00000

 k-point   893 :      -0.3125    0.4687    0.2188
  band No.  band energies     occupation 
      1     -21.9371      2.00000
      2     -21.9371      2.00000
      3     -21.8234      2.00000
      4     -21.8233      2.00000
      5     -21.8233      2.00000
      6     -20.4459      2.00000
      7     -20.4452      2.00000
      8     -14.6204      2.00000
      9     -14.0885      2.00000
     10     -14.0625      2.00000
     11     -14.0573      2.00000
     12     -13.7840      2.00000
     13     -13.7260      2.00000
     14      -6.9195      2.00000
     15      -6.8982      2.00000
     16      -6.8899      2.00000
     17      -6.8844      2.00000
     18      -6.8594      2.00000
     19      -6.8523      2.00000
     20      -6.6311      2.00000
     21      -3.4767      2.00000
     22      -3.3740      2.00000
     23      -3.3288      2.00000
     24      -2.2775      2.00000
     25      -2.1653      2.00000
     26      -1.7618      2.00000
     27      -1.7353      2.00000
     28      -1.5701      2.00000
     29      -1.4078      2.00000
     30      -1.3824      2.00000
     31      -1.2913      2.00000
     32      -1.2035      2.00000
     33      -1.0852      2.00000
     34      -1.0534      2.00000
     35      -1.0231      2.00000
     36      -0.7573      2.00000
     37      -0.6462      2.00000
     38       2.4885      0.00000
     39       6.0537      0.00000
     40       6.4134      0.00000
     41       6.7338      0.00000
     42       7.3726      0.00000
     43       7.4422      0.00000
     44       7.5690      0.00000

 k-point   894 :      -0.2812    0.4687    0.2188
  band No.  band energies     occupation 
      1     -21.9371      2.00000
      2     -21.9371      2.00000
      3     -21.8234      2.00000
      4     -21.8233      2.00000
      5     -21.8233      2.00000
      6     -20.4457      2.00000
      7     -20.4454      2.00000
      8     -14.6200      2.00000
      9     -14.0875      2.00000
     10     -14.0616      2.00000
     11     -14.0601      2.00000
     12     -13.7820      2.00000
     13     -13.7278      2.00000
     14      -6.9194      2.00000
     15      -6.8955      2.00000
     16      -6.8912      2.00000
     17      -6.8851      2.00000
     18      -6.8583      2.00000
     19      -6.8529      2.00000
     20      -6.6301      2.00000
     21      -3.4726      2.00000
     22      -3.3616      2.00000
     23      -3.3457      2.00000
     24      -2.2521      2.00000
     25      -2.1968      2.00000
     26      -1.7577      2.00000
     27      -1.7212      2.00000
     28      -1.5847      2.00000
     29      -1.4029      2.00000
     30      -1.3895      2.00000
     31      -1.2689      2.00000
     32      -1.2272      2.00000
     33      -1.0899      2.00000
     34      -1.0558      2.00000
     35      -1.0215      2.00000
     36      -0.7300      2.00000
     37      -0.6730      2.00000
     38       2.4923      0.00000
     39       6.0595      0.00000
     40       6.4837      0.00000
     41       6.5681      0.00000
     42       7.3515      0.00000
     43       7.4476      0.00000
     44       7.6335      0.00000

 k-point   895 :      -0.2500    0.4688    0.2188
  band No.  band energies     occupation 
      1     -21.9371      2.00000
      2     -21.9371      2.00000
      3     -21.8234      2.00000
      4     -21.8233      2.00000
      5     -21.8233      2.00000
      6     -20.4456      2.00000
      7     -20.4455      2.00000
      8     -14.6202      2.00000
      9     -14.0894      2.00000
     10     -14.0620      2.00000
     11     -14.0578      2.00000
     12     -13.7809      2.00000
     13     -13.7286      2.00000
     14      -6.9196      2.00000
     15      -6.8939      2.00000
     16      -6.8937      2.00000
     17      -6.8848      2.00000
     18      -6.8580      2.00000
     19      -6.8535      2.00000
     20      -6.6308      2.00000
     21      -3.4793      2.00000
     22      -3.3584      2.00000
     23      -3.3429      2.00000
     24      -2.2251      2.00000
     25      -2.2227      2.00000
     26      -1.7618      2.00000
     27      -1.7140      2.00000
     28      -1.5913      2.00000
     29      -1.3964      2.00000
     30      -1.3935      2.00000
     31      -1.2520      2.00000
     32      -1.2450      2.00000
     33      -1.0855      2.00000
     34      -1.0533      2.00000
     35      -1.0208      2.00000
     36      -0.7014      2.00000
     37      -0.6996      2.00000
     38       2.4901      0.00000
     39       6.0407      0.00000
     40       6.4866      0.00000
     41       6.6760      0.00000
     42       7.3954      0.00000
     43       7.4402      0.00000
     44       7.5769      0.00000

 k-point   896 :      -0.2812    0.5000    0.2188
  band No.  band energies     occupation 
      1     -21.9371      2.00000
      2     -21.9371      2.00000
      3     -21.8234      2.00000
      4     -21.8233      2.00000
      5     -21.8233      2.00000
      6     -20.4459      2.00000
      7     -20.4452      2.00000
      8     -14.6199      2.00000
      9     -14.0849      2.00000
     10     -14.0626      2.00000
     11     -14.0614      2.00000
     12     -13.7846      2.00000
     13     -13.7258      2.00000
     14      -6.9192      2.00000
     15      -6.8972      2.00000
     16      -6.8885      2.00000
     17      -6.8854      2.00000
     18      -6.8592      2.00000
     19      -6.8518      2.00000
     20      -6.6295      2.00000
     21      -3.4642      2.00000
     22      -3.3730      2.00000
     23      -3.3413      2.00000
     24      -2.2792      2.00000
     25      -2.1685      2.00000
     26      -1.7536      2.00000
     27      -1.7379      2.00000
     28      -1.5683      2.00000
     29      -1.4094      2.00000
     30      -1.3859      2.00000
     31      -1.2895      2.00000
     32      -1.2059      2.00000
     33      -1.0941      2.00000
     34      -1.0588      2.00000
     35      -1.0224      2.00000
     36      -0.7606      2.00000
     37      -0.6463      2.00000
     38       2.4942      0.00000
     39       6.0834      0.00000
     40       6.4440      0.00000
     41       6.7170      0.00000
     42       7.3551      0.00000
     43       7.4297      0.00000
     44       7.5265      0.00000

 k-point   897 :      -0.2500    0.5000    0.2500
  band No.  band energies     occupation 
      1     -21.9372      2.00000
      2     -21.9371      2.00000
      3     -21.8234      2.00000
      4     -21.8234      2.00000
      5     -21.8233      2.00000
      6     -20.4455      2.00000
      7     -20.4455      2.00000
      8     -14.6198      2.00000
      9     -14.0856      2.00000
     10     -14.0620      2.00000
     11     -14.0620      2.00000
     12     -13.7815      2.00000
     13     -13.7282      2.00000
     14      -6.9194      2.00000
     15      -6.8929      2.00000
     16      -6.8929      2.00000
     17      -6.8853      2.00000
     18      -6.8578      2.00000
     19      -6.8531      2.00000
     20      -6.6295      2.00000
     21      -3.4653      2.00000
     22      -3.3573      2.00000
     23      -3.3573      2.00000
     24      -2.2262      2.00000
     25      -2.2262      2.00000
     26      -1.7533      2.00000
     27      -1.7161      2.00000
     28      -1.5903      2.00000
     29      -1.3974      2.00000
     30      -1.3974      2.00000
     31      -1.2474      2.00000
     32      -1.2474      2.00000
     33      -1.0945      2.00000
     34      -1.0586      2.00000
     35      -1.0214      2.00000
     36      -0.7016      2.00000
     37      -0.7016      2.00000
     38       2.4948      0.00000
     39       6.0763      0.00000
     40       6.4575      0.00000
     41       6.6520      0.00000
     42       7.3486      0.00000
     43       7.4186      0.00000
     44       7.5946      0.00000


--------------------------------------------------------------------------------------------------------


 soft charge-density along one line, spin component           1
         0         1         2         3         4         5         6         7         8         9
 total charge-density along one line
 
 pseudopotential strength for first ion, spin component:           1
 17.990  -4.687   0.000   0.000   0.000  -0.000  -0.000  -0.000
 -4.687   1.227  -0.000  -0.000  -0.000   0.000   0.000   0.000
  0.000  -0.000   2.306  -0.000  -0.000  -2.752   0.000   0.000
  0.000  -0.000  -0.000   2.306  -0.000   0.000  -2.752   0.000
  0.000  -0.000  -0.000  -0.000   2.306   0.000   0.000  -2.752
 -0.000   0.000  -2.752   0.000   0.000   3.226  -0.000  -0.000
 -0.000   0.000   0.000  -2.752   0.000  -0.000   3.226  -0.000
 -0.000   0.000   0.000   0.000  -2.752  -0.000  -0.000   3.226
 -0.000   0.000   0.000  -0.000   0.000  -0.000   0.000  -0.000
 -0.000   0.000   0.000   0.000  -0.000  -0.000  -0.000   0.000
 -0.000   0.000  -0.000   0.000  -0.000   0.000  -0.000   0.000
 -0.000   0.000  -0.000   0.000   0.000   0.000  -0.000  -0.000
 -0.000   0.000  -0.000  -0.000   0.000   0.000   0.000  -0.000
 total augmentation occupancy for first ion, spin component:           1
  1.302  -1.212   0.000   0.000   0.000   0.000  -0.000  -0.000  -0.000  -0.000   0.000  -0.000   0.000
 -1.212   1.326   0.000  -0.000  -0.000  -0.000   0.000   0.000  -0.000  -0.000   0.000  -0.000   0.000
  0.000  -0.000   2.047  -0.000   0.000   0.018  -0.000   0.000  -0.000  -0.000  -0.000  -0.001  -0.000
 -0.000  -0.000   0.000   2.047   0.000   0.000   0.018   0.000  -0.001  -0.000   0.000  -0.000   0.000
  0.000  -0.000   0.000   0.000   2.047  -0.000  -0.000   0.018   0.000  -0.001  -0.000  -0.000  -0.000
 -0.000   0.000   0.018   0.000   0.000   0.008   0.000  -0.000   0.000  -0.000  -0.000  -0.000  -0.000
  0.000  -0.000  -0.000   0.018  -0.000   0.000   0.008  -0.000  -0.000  -0.000  -0.000   0.000  -0.000
 -0.000  -0.000  -0.000   0.000   0.018   0.000  -0.000   0.008  -0.000  -0.000  -0.000   0.000  -0.000
  0.000  -0.000  -0.000  -0.001  -0.000  -0.000  -0.000  -0.000   0.006   0.000  -0.000   0.000   0.000
  0.000  -0.000   0.000   0.000  -0.001   0.000   0.000  -0.000  -0.000   0.006   0.000   0.000   0.000
  0.000  -0.000   0.000  -0.000  -0.000   0.000   0.000  -0.000   0.000  -0.000   0.004  -0.000   0.000
 -0.000   0.000  -0.001  -0.000   0.000  -0.000   0.000  -0.000  -0.000   0.000   0.000   0.006  -0.000
  0.000   0.000   0.000   0.000   0.000   0.000  -0.000  -0.000   0.000   0.000   0.000   0.000   0.004


------------------------ aborting loop because EDIFF is reached ----------------------------------------


    CHARGE:  cpu time      4.4695: real time      4.4651
    FORLOC:  cpu time      0.0041: real time      0.0041
    FORNL :  cpu time      8.1570: real time      8.2244
    FORCOR:  cpu time      0.1362: real time      0.1408
    FORHAR:  cpu time      0.0120: real time      0.0134
    MIXING:  cpu time      0.0019: real time      0.0019
    OFIELD:  cpu time      0.0004: real time      0.0019

 VOLUME and BASIS-vectors are now :
 -----------------------------------------------------------------------------
  energy-cutoff  :      400.00
  volume of cell :      329.69
      direct lattice vectors                 reciprocal lattice vectors
     0.000000000  5.483098579  5.483098579    -0.091189314  0.091189314  0.091189314
     5.483098579  0.000000000  5.483098579     0.091189314 -0.091189314  0.091189314
     5.483098579  5.483098579  0.000000000     0.091189314  0.091189314 -0.091189314

  length of vectors
     7.754272374  7.754272374  7.754272374     0.157944526  0.157944526  0.157944526


 FORCES acting on ions
    electron-ion (+dipol)            ewald-force                    non-local-force                 convergence-correction
 -----------------------------------------------------------------------------------------------
   0.137E-06 0.137E-06 0.161E-06   -.242E-13 0.688E-14 0.157E-14   -.624E-18 0.135E-18 -.518E-18   0.104E-06 0.104E-06 0.104E-06
   -.137E-06 -.137E-06 -.161E-06   0.171E-13 -.555E-14 -.152E-14   -.675E-18 -.242E-18 0.147E-18   -.104E-06 -.104E-06 -.104E-06
   -.955E-13 -.959E-13 -.831E-13   -.844E-13 0.853E-13 0.143E-12   0.703E-22 0.176E-21 -.176E-22   -.566E-13 0.177E-12 -.169E-12
   0.180E-06 0.180E-06 -.183E+03   0.552E-14 0.622E-14 0.184E+03   0.199E-17 0.372E-17 -.130E+01   -.393E-06 -.393E-06 0.836E-02
   -.180E-06 -.180E-06 0.183E+03   -.698E-15 -.888E-15 -.184E+03   0.152E-17 -.195E-17 0.130E+01   0.393E-06 0.393E-06 -.836E-02
   -.183E+03 0.313E-06 0.347E-06   0.184E+03 -.266E-14 0.431E-14   -.130E+01 0.710E-18 -.204E-17   0.836E-02 -.393E-06 -.393E-06
   0.183E+03 -.313E-06 -.347E-06   -.184E+03 0.888E-15 -.602E-14   0.130E+01 -.296E-17 0.114E-17   -.836E-02 0.393E-06 0.393E-06
   0.313E-06 -.183E+03 0.347E-06   0.114E-14 0.184E+03 -.855E-14   -.538E-19 -.130E+01 0.251E-17   -.393E-06 0.836E-02 -.393E-06
   -.313E-06 0.183E+03 -.347E-06   -.108E-14 -.184E+03 0.787E-14   0.328E-17 0.130E+01 0.353E-18   0.393E-06 -.836E-02 0.393E-06
 -----------------------------------------------------------------------------------------------
   0.233E-11 0.497E-12 0.485E-12   0.594E-16 0.000E+00 -.240E-14   0.225E-15 0.444E-15 0.196E-17   0.120E-13 0.134E-12 -.998E-13
 
 
 POSITION                                       TOTAL-FORCE (eV/Angst)
 -----------------------------------------------------------------------------------
      2.74155      2.74155      2.74155         0.000000      0.000000      0.000000
      8.22465      8.22465      8.22465         0.000000      0.000000      0.000000
      0.00000      0.00000      0.00000         0.000000      0.000000      0.000000
      5.48310      5.48310      2.62933         0.000000      0.000000      0.007371
      5.48310      5.48310      8.33687         0.000000      0.000000     -0.007371
      2.62933      5.48310      5.48310         0.007371      0.000000      0.000000
      8.33687      5.48310      5.48310        -0.007371      0.000000     -0.000000
      5.48310      2.62933      5.48310         0.000000      0.007371     -0.000000
      5.48310      8.33687      5.48310        -0.000000     -0.007371      0.000000
 -----------------------------------------------------------------------------------
    total drift:                                0.000000      0.000000      0.000000


--------------------------------------------------------------------------------------------------------



  FREE ENERGIE OF THE ION-ELECTRON SYSTEM (eV)
  ---------------------------------------------------
  free  energy   TOTEN  =      -167.52051046 eV

  energy  without entropy=     -167.52051046  energy(sigma->0) =     -167.52051046
 


--------------------------------------------------------------------------------------------------------


    POTLOK:  cpu time      0.1356: real time      0.1361


--------------------------------------------------------------------------------------------------------


     LOOP+:  cpu time   3303.6957: real time   3359.7809
    4ORBIT:  cpu time      0.0000: real time      0.0000

 total amount of memory used by VASP MPI-rank0   315264. kBytes
=======================================================================

   base      :      30000. kBytes
   nonl-proj :      99237. kBytes
   fftplans  :       8094. kBytes
   grid      :       4891. kBytes
   one-center:         15. kBytes
   wavefun   :     173027. kBytes
 
  
  
 General timing and accounting informations for this job:
 ========================================================
  
                  Total CPU time used (sec):     3340.268
                            User time (sec):     3323.367
                          System time (sec):       16.901
                         Elapsed time (sec):     3468.433
  
                   Maximum memory used (kb):      467188.
                   Average memory used (kb):          N/A
  
                          Minor page faults:       327589
                          Major page faults:            0
                 Voluntary context switches:       914964
