mesh: [    15,    15,    15 ]
nqpoint: 3375   
reciprocal_lattice:
- [  -0.16260274,   0.16260274,   0.16260274 ] # a*
- [   0.16260274,  -0.16260274,   0.16260274 ] # b*
- [   0.16260274,   0.16260274,  -0.16260274 ] # c*
natom:   3      
lattice:
- [     0.000000000000000,     3.074978941807863,     3.074978941807863 ] # a
- [     3.074978941807862,     0.000000000000000,     3.074978941807863 ] # b
- [     3.074978941807862,     3.074978941807863,     0.000000000000000 ] # c
points:
- symbol: Zr # 1
  coordinates: [  0.500000000000000,  0.500000000000000,  0.500000000000000 ]
  mass: 91.224000
- symbol: Ni # 2
  coordinates: [  0.250000000000000,  0.250000000000000,  0.250000000000000 ]
  mass: 58.693400
- symbol: Sn # 3
  coordinates: [  0.000000000000000,  0.000000000000000,  0.000000000000000 ]
  mass: 118.710000

phonon:
- q-position: [    0.0000000,    0.0000000,    0.0000000 ]
  distance_from_gamma:  0.000000000
  weight: 1    
  band:
  - # 1
    frequency:    -0.0051449177
  - # 2
    frequency:    -0.0051449177
  - # 3
    frequency:    -0.0051449177
  - # 4
    frequency:     5.6505503791
  - # 5
    frequency:     5.6505503791
  - # 6
    frequency:     5.6505503791
  - # 7
    frequency:     6.5778150965
  - # 8
    frequency:     6.5778150965
  - # 9
    frequency:     6.5778150965

- q-position: [    0.0666667,    0.0000000,    0.0000000 ]
  distance_from_gamma:  0.018775747
  weight: 1    
  band:
  - # 1
    frequency:     0.5874919816
  - # 2
    frequency:     0.5874919816
  - # 3
    frequency:     0.9875148239
  - # 4
    frequency:     5.6219682936
  - # 5
    frequency:     5.6329374910
  - # 6
    frequency:     5.6329374910
  - # 7
    frequency:     6.5790077706
  - # 8
    frequency:     6.5790077706
  - # 9
    frequency:     6.6883547396

- q-position: [    0.1333333,    0.0000000,    0.0000000 ]
  distance_from_gamma:  0.037551494
  weight: 1    
  band:
  - # 1
    frequency:     1.1690244064
  - # 2
    frequency:     1.1690244064
  - # 3
    frequency:     1.9365132259
  - # 4
    frequency:     5.5606567893
  - # 5
    frequency:     5.5805794221
  - # 6
    frequency:     5.5805794221
  - # 7
    frequency:     6.5769757332
  - # 8
    frequency:     6.5769757332
  - # 9
    frequency:     6.9322993615

- q-position: [    0.2000000,    0.0000000,    0.0000000 ]
  distance_from_gamma:  0.056327241
  weight: 1    
  band:
  - # 1
    frequency:     1.7354209824
  - # 2
    frequency:     1.7354209824
  - # 3
    frequency:     2.8082723464
  - # 4
    frequency:     5.4885168064
  - # 5
    frequency:     5.4912181169
  - # 6
    frequency:     5.4912181169
  - # 7
    frequency:     6.5637324279
  - # 8
    frequency:     6.5637324279
  - # 9
    frequency:     7.1517722730

- q-position: [    0.2666667,    0.0000000,    0.0000000 ]
  distance_from_gamma:  0.075102988
  weight: 1    
  band:
  - # 1
    frequency:     2.2731303834
  - # 2
    frequency:     2.2731303834
  - # 3
    frequency:     3.5613483210
  - # 4
    frequency:     5.3578918139
  - # 5
    frequency:     5.3578918139
  - # 6
    frequency:     5.4186575972
  - # 7
    frequency:     6.5414218459
  - # 8
    frequency:     6.5414218459
  - # 9
    frequency:     7.2296043408

- q-position: [    0.3333333,    0.0000000,    0.0000000 ]
  distance_from_gamma:  0.093878735
  weight: 1    
  band:
  - # 1
    frequency:     2.7633713743
  - # 2
    frequency:     2.7633713743
  - # 3
    frequency:     4.1348138851
  - # 4
    frequency:     5.1778911143
  - # 5
    frequency:     5.1778911143
  - # 6
    frequency:     5.4033813492
  - # 7
    frequency:     6.5209893291
  - # 8
    frequency:     6.5209893291
  - # 9
    frequency:     7.1247193850

- q-position: [    0.4000000,    0.0000000,    0.0000000 ]
  distance_from_gamma:  0.112654483
  weight: 1    
  band:
  - # 1
    frequency:     3.1751596537
  - # 2
    frequency:     3.1751596537
  - # 3
    frequency:     4.4371984769
  - # 4
    frequency:     4.9708538796
  - # 5
    frequency:     4.9708538796
  - # 6
    frequency:     5.5541291904
  - # 7
    frequency:     6.5102625371
  - # 8
    frequency:     6.5102625371
  - # 9
    frequency:     6.8703534998

- q-position: [    0.4666667,    0.0000000,    0.0000000 ]
  distance_from_gamma:  0.131430230
  weight: 1    
  band:
  - # 1
    frequency:     3.4391751418
  - # 2
    frequency:     3.4391751418
  - # 3
    frequency:     4.5106242529
  - # 4
    frequency:     4.8068897746
  - # 5
    frequency:     4.8068897746
  - # 6
    frequency:     5.8290586480
  - # 7
    frequency:     6.5075215584
  - # 8
    frequency:     6.5075215584
  - # 9
    frequency:     6.5769174143

- q-position: [   -0.4666667,    0.0000000,    0.0000000 ]
  distance_from_gamma:  0.131430230
  weight: 1    
  band:
  - # 1
    frequency:     3.4391751418
  - # 2
    frequency:     3.4391751418
  - # 3
    frequency:     4.5106242529
  - # 4
    frequency:     4.8068897746
  - # 5
    frequency:     4.8068897746
  - # 6
    frequency:     5.8290586480
  - # 7
    frequency:     6.5075215584
  - # 8
    frequency:     6.5075215584
  - # 9
    frequency:     6.5769174143

- q-position: [   -0.4000000,    0.0000000,    0.0000000 ]
  distance_from_gamma:  0.112654483
  weight: 1    
  band:
  - # 1
    frequency:     3.1751596537
  - # 2
    frequency:     3.1751596537
  - # 3
    frequency:     4.4371984769
  - # 4
    frequency:     4.9708538796
  - # 5
    frequency:     4.9708538796
  - # 6
    frequency:     5.5541291904
  - # 7
    frequency:     6.5102625371
  - # 8
    frequency:     6.5102625371
  - # 9
    frequency:     6.8703534998

- q-position: [   -0.3333333,    0.0000000,    0.0000000 ]
  distance_from_gamma:  0.093878735
  weight: 1    
  band:
  - # 1
    frequency:     2.7633713743
  - # 2
    frequency:     2.7633713743
  - # 3
    frequency:     4.1348138851
  - # 4
    frequency:     5.1778911143
  - # 5
    frequency:     5.1778911143
  - # 6
    frequency:     5.4033813492
  - # 7
    frequency:     6.5209893291
  - # 8
    frequency:     6.5209893291
  - # 9
    frequency:     7.1247193850

- q-position: [   -0.2666667,    0.0000000,    0.0000000 ]
  distance_from_gamma:  0.075102988
  weight: 1    
  band:
  - # 1
    frequency:     2.2731303834
  - # 2
    frequency:     2.2731303834
  - # 3
    frequency:     3.5613483210
  - # 4
    frequency:     5.3578918139
  - # 5
    frequency:     5.3578918139
  - # 6
    frequency:     5.4186575972
  - # 7
    frequency:     6.5414218459
  - # 8
    frequency:     6.5414218459
  - # 9
    frequency:     7.2296043408

- q-position: [   -0.2000000,    0.0000000,    0.0000000 ]
  distance_from_gamma:  0.056327241
  weight: 1    
  band:
  - # 1
    frequency:     1.7354209824
  - # 2
    frequency:     1.7354209824
  - # 3
    frequency:     2.8082723464
  - # 4
    frequency:     5.4885168064
  - # 5
    frequency:     5.4912181169
  - # 6
    frequency:     5.4912181169
  - # 7
    frequency:     6.5637324279
  - # 8
    frequency:     6.5637324279
  - # 9
    frequency:     7.1517722730

- q-position: [   -0.1333333,    0.0000000,    0.0000000 ]
  distance_from_gamma:  0.037551494
  weight: 1    
  band:
  - # 1
    frequency:     1.1690244064
  - # 2
    frequency:     1.1690244064
  - # 3
    frequency:     1.9365132259
  - # 4
    frequency:     5.5606567893
  - # 5
    frequency:     5.5805794221
  - # 6
    frequency:     5.5805794221
  - # 7
    frequency:     6.5769757332
  - # 8
    frequency:     6.5769757332
  - # 9
    frequency:     6.9322993615

- q-position: [   -0.0666667,    0.0000000,    0.0000000 ]
  distance_from_gamma:  0.018775747
  weight: 1    
  band:
  - # 1
    frequency:     0.5874919816
  - # 2
    frequency:     0.5874919816
  - # 3
    frequency:     0.9875148239
  - # 4
    frequency:     5.6219682936
  - # 5
    frequency:     5.6329374910
  - # 6
    frequency:     5.6329374910
  - # 7
    frequency:     6.5790077706
  - # 8
    frequency:     6.5790077706
  - # 9
    frequency:     6.6883547396

- q-position: [    0.0000000,    0.0666667,    0.0000000 ]
  distance_from_gamma:  0.018775747
  weight: 1    
  band:
  - # 1
    frequency:     0.5874919816
  - # 2
    frequency:     0.5874919816
  - # 3
    frequency:     0.9875148239
  - # 4
    frequency:     5.6219682936
  - # 5
    frequency:     5.6329374910
  - # 6
    frequency:     5.6329374910
  - # 7
    frequency:     6.5790077706
  - # 8
    frequency:     6.5790077706
  - # 9
    frequency:     6.6883547396

- q-position: [    0.0666667,    0.0666667,    0.0000000 ]
  distance_from_gamma:  0.021680365
  weight: 1    
  band:
  - # 1
    frequency:     0.6317201155
  - # 2
    frequency:     0.6317201155
  - # 3
    frequency:     1.1864945561
  - # 4
    frequency:     5.5720450073
  - # 5
    frequency:     5.6440936766
  - # 6
    frequency:     5.6440936766
  - # 7
    frequency:     6.5931755307
  - # 8
    frequency:     6.5931755307
  - # 9
    frequency:     6.6980499828

- q-position: [    0.1333333,    0.0666667,    0.0000000 ]
  distance_from_gamma:  0.035952818
  weight: 1    
  band:
  - # 1
    frequency:     1.0590782619
  - # 2
    frequency:     1.0865965308
  - # 3
    frequency:     1.9058715993
  - # 4
    frequency:     5.4711428758
  - # 5
    frequency:     5.6205898277
  - # 6
    frequency:     5.6251395854
  - # 7
    frequency:     6.5880118783
  - # 8
    frequency:     6.6004871384
  - # 9
    frequency:     6.8886352744

- q-position: [    0.2000000,    0.0666667,    0.0000000 ]
  distance_from_gamma:  0.053105832
  weight: 1    
  band:
  - # 1
    frequency:     1.5722674827
  - # 2
    frequency:     1.6305804062
  - # 3
    frequency:     2.7045054129
  - # 4
    frequency:     5.3381976944
  - # 5
    frequency:     5.5613484826
  - # 6
    frequency:     5.5884859954
  - # 7
    frequency:     6.5689091120
  - # 8
    frequency:     6.5903020540
  - # 9
    frequency:     7.1087841399

- q-position: [    0.2666667,    0.0666667,    0.0000000 ]
  distance_from_gamma:  0.071083831
  weight: 1    
  band:
  - # 1
    frequency:     2.0887509512
  - # 2
    frequency:     2.1710921736
  - # 3
    frequency:     3.4455081597
  - # 4
    frequency:     5.1861145320
  - # 5
    frequency:     5.4570799470
  - # 6
    frequency:     5.5344735873
  - # 7
    frequency:     6.5413976712
  - # 8
    frequency:     6.5645026968
  - # 9
    frequency:     7.2237148871

- q-position: [    0.3333333,    0.0666667,    0.0000000 ]
  distance_from_gamma:  0.089390436
  weight: 1    
  band:
  - # 1
    frequency:     2.5778172641
  - # 2
    frequency:     2.6772079024
  - # 3
    frequency:     4.0404952314
  - # 4
    frequency:     5.0365619521
  - # 5
    frequency:     5.2983872793
  - # 6
    frequency:     5.4811917927
  - # 7
    frequency:     6.5127646976
  - # 8
    frequency:     6.5369073957
  - # 9
    frequency:     7.1723493107

- q-position: [    0.4000000,    0.0666667,    0.0000000 ]
  distance_from_gamma:  0.107858455
  weight: 1    
  band:
  - # 1
    frequency:     3.0140706631
  - # 2
    frequency:     3.1163468294
  - # 3
    frequency:     4.3498917430
  - # 4
    frequency:     4.9462494890
  - # 5
    frequency:     5.0913870153
  - # 6
    frequency:     5.5209514347
  - # 7
    frequency:     6.4929859823
  - # 8
    frequency:     6.5196318563
  - # 9
    frequency:     6.9671918693

- q-position: [    0.4666667,    0.0666667,    0.0000000 ]
  distance_from_gamma:  0.126417167
  weight: 1    
  band:
  - # 1
    frequency:     3.3550184098
  - # 2
    frequency:     3.4240202416
  - # 3
    frequency:     4.3542644368
  - # 4
    frequency:     4.8762164255
  - # 5
    frequency:     4.9165433854
  - # 6
    frequency:     5.7394964877
  - # 7
    frequency:     6.4835426514
  - # 8
    frequency:     6.5132825835
  - # 9
    frequency:     6.6885922329

- q-position: [   -0.4666667,    0.0666667,    0.0000000 ]
  distance_from_gamma:  0.138822072
  weight: 1    
  band:
  - # 1
    frequency:     3.4697169182
  - # 2
    frequency:     3.5037583355
  - # 3
    frequency:     4.3478230875
  - # 4
    frequency:     4.7544892537
  - # 5
    frequency:     4.9340650376
  - # 6
    frequency:     5.8613352676
  - # 7
    frequency:     6.4774036807
  - # 8
    frequency:     6.5113387237
  - # 9
    frequency:     6.5655562179

- q-position: [   -0.4000000,    0.0666667,    0.0000000 ]
  distance_from_gamma:  0.120223441
  weight: 1    
  band:
  - # 1
    frequency:     3.2338546761
  - # 2
    frequency:     3.3634311242
  - # 3
    frequency:     4.3990361901
  - # 4
    frequency:     4.8252537552
  - # 5
    frequency:     5.0254126690
  - # 6
    frequency:     5.6504539127
  - # 7
    frequency:     6.4865747315
  - # 8
    frequency:     6.5104855298
  - # 9
    frequency:     6.7790882480

- q-position: [   -0.3333333,    0.0666667,    0.0000000 ]
  distance_from_gamma:  0.101689927
  weight: 1    
  band:
  - # 1
    frequency:     2.8511334500
  - # 2
    frequency:     3.0100827207
  - # 3
    frequency:     4.2892718554
  - # 4
    frequency:     5.0109322260
  - # 5
    frequency:     5.1188658144
  - # 6
    frequency:     5.4953053865
  - # 7
    frequency:     6.5025933739
  - # 8
    frequency:     6.5140745303
  - # 9
    frequency:     7.0459961112

- q-position: [   -0.2666667,    0.0666667,    0.0000000 ]
  distance_from_gamma:  0.083265023
  weight: 1    
  band:
  - # 1
    frequency:     2.3947623743
  - # 2
    frequency:     2.5508072221
  - # 3
    frequency:     3.8556065199
  - # 4
    frequency:     5.2060716586
  - # 5
    frequency:     5.2095178581
  - # 6
    frequency:     5.5376849425
  - # 7
    frequency:     6.5257444541
  - # 8
    frequency:     6.5340853701
  - # 9
    frequency:     7.2050750534

- q-position: [   -0.2000000,    0.0666667,    0.0000000 ]
  distance_from_gamma:  0.065041096
  weight: 1    
  band:
  - # 1
    frequency:     1.8955978921
  - # 2
    frequency:     2.0379979576
  - # 3
    frequency:     3.1968870304
  - # 4
    frequency:     5.3288179185
  - # 5
    frequency:     5.3705971070
  - # 6
    frequency:     5.6084763655
  - # 7
    frequency:     6.5424012638
  - # 8
    frequency:     6.5740541102
  - # 9
    frequency:     7.2003531539

- q-position: [   -0.1333333,    0.0666667,    0.0000000 ]
  distance_from_gamma:  0.047251261
  weight: 1    
  band:
  - # 1
    frequency:     1.3788136247
  - # 2
    frequency:     1.5038292811
  - # 3
    frequency:     2.4205295337
  - # 4
    frequency:     5.4476271701
  - # 5
    frequency:     5.4964373829
  - # 6
    frequency:     5.6459909808
  - # 7
    frequency:     6.5569356927
  - # 8
    frequency:     6.6028004972
  - # 9
    frequency:     7.0444540147

- q-position: [   -0.0666667,    0.0666667,    0.0000000 ]
  distance_from_gamma:  0.030660667
  weight: 1    
  band:
  - # 1
    frequency:     0.8919007027
  - # 2
    frequency:     0.9855007058
  - # 3
    frequency:     1.6128629421
  - # 4
    frequency:     5.5523877539
  - # 5
    frequency:     5.5839613181
  - # 6
    frequency:     5.6509165137
  - # 7
    frequency:     6.5674375124
  - # 8
    frequency:     6.6033191121
  - # 9
    frequency:     6.8267321443

- q-position: [    0.0000000,    0.1333333,    0.0000000 ]
  distance_from_gamma:  0.037551494
  weight: 1    
  band:
  - # 1
    frequency:     1.1690244064
  - # 2
    frequency:     1.1690244064
  - # 3
    frequency:     1.9365132259
  - # 4
    frequency:     5.5606567893
  - # 5
    frequency:     5.5805794221
  - # 6
    frequency:     5.5805794221
  - # 7
    frequency:     6.5769757332
  - # 8
    frequency:     6.5769757332
  - # 9
    frequency:     6.9322993615

- q-position: [    0.0666667,    0.1333333,    0.0000000 ]
  distance_from_gamma:  0.035952818
  weight: 1    
  band:
  - # 1
    frequency:     1.0590782619
  - # 2
    frequency:     1.0865965308
  - # 3
    frequency:     1.9058715993
  - # 4
    frequency:     5.4711428758
  - # 5
    frequency:     5.6205898277
  - # 6
    frequency:     5.6251395854
  - # 7
    frequency:     6.5880118783
  - # 8
    frequency:     6.6004871384
  - # 9
    frequency:     6.8886352744

- q-position: [    0.1333333,    0.1333333,    0.0000000 ]
  distance_from_gamma:  0.043360731
  weight: 1    
  band:
  - # 1
    frequency:     1.2326176611
  - # 2
    frequency:     1.2326176611
  - # 3
    frequency:     2.3253849069
  - # 4
    frequency:     5.3322049977
  - # 5
    frequency:     5.6209446393
  - # 6
    frequency:     5.6209446393
  - # 7
    frequency:     6.6165029778
  - # 8
    frequency:     6.6165029778
  - # 9
    frequency:     6.9654891880

- q-position: [    0.2000000,    0.1333333,    0.0000000 ]
  distance_from_gamma:  0.056327241
  weight: 1    
  band:
  - # 1
    frequency:     1.5913354580
  - # 2
    frequency:     1.6159603446
  - # 3
    frequency:     2.9366237429
  - # 4
    frequency:     5.1539411593
  - # 5
    frequency:     5.5837830188
  - # 6
    frequency:     5.5997751881
  - # 7
    frequency:     6.6037523221
  - # 8
    frequency:     6.6128308597
  - # 9
    frequency:     7.1222261278

- q-position: [    0.2666667,    0.1333333,    0.0000000 ]
  distance_from_gamma:  0.071905637
  weight: 1    
  band:
  - # 1
    frequency:     2.0246885505
  - # 2
    frequency:     2.0959859342
  - # 3
    frequency:     3.5745762968
  - # 4
    frequency:     4.9555625495
  - # 5
    frequency:     5.5020506067
  - # 6
    frequency:     5.5761270323
  - # 7
    frequency:     6.5649916696
  - # 8
    frequency:     6.5898663453
  - # 9
    frequency:     7.2258141759

- q-position: [    0.3333333,    0.1333333,    0.0000000 ]
  distance_from_gamma:  0.088730719
  weight: 1    
  band:
  - # 1
    frequency:     2.4721227451
  - # 2
    frequency:     2.5883009674
  - # 3
    frequency:     4.1049488005
  - # 4
    frequency:     4.7900220769
  - # 5
    frequency:     5.3652884671
  - # 6
    frequency:     5.5528373021
  - # 7
    frequency:     6.5136121629
  - # 8
    frequency:     6.5610753511
  - # 9
    frequency:     7.2017108700

- q-position: [    0.4000000,    0.1333333,    0.0000000 ]
  distance_from_gamma:  0.106211665
  weight: 1    
  band:
  - # 1
    frequency:     2.8987698961
  - # 2
    frequency:     3.0426892074
  - # 3
    frequency:     4.2531630647
  - # 4
    frequency:     4.8645492748
  - # 5
    frequency:     5.1725061193
  - # 6
    frequency:     5.5630664415
  - # 7
    frequency:     6.4660938641
  - # 8
    frequency:     6.5400640639
  - # 9
    frequency:     7.0461612490

- q-position: [    0.4666667,    0.1333333,    0.0000000 ]
  distance_from_gamma:  0.124071561
  weight: 1    
  band:
  - # 1
    frequency:     3.2726951984
  - # 2
    frequency:     3.3994513651
  - # 3
    frequency:     4.1058009029
  - # 4
    frequency:     4.9432590376
  - # 5
    frequency:     5.0356475365
  - # 6
    frequency:     5.6885926345
  - # 7
    frequency:     6.4380513267
  - # 8
    frequency:     6.5296027651
  - # 9
    frequency:     6.8131985419

- q-position: [    0.5333333,    0.1333333,    0.0000000 ]
  distance_from_gamma:  0.142167662
  weight: 1    
  band:
  - # 1
    frequency:     3.4952074226
  - # 2
    frequency:     3.5330772566
  - # 3
    frequency:     4.0637908169
  - # 4
    frequency:     4.7372579761
  - # 5
    frequency:     5.1103306339
  - # 6
    frequency:     5.8274761744
  - # 7
    frequency:     6.4298568282
  - # 8
    frequency:     6.5237201390
  - # 9
    frequency:     6.6397542485

- q-position: [   -0.4000000,    0.1333333,    0.0000000 ]
  distance_from_gamma:  0.130082192
  weight: 1    
  band:
  - # 1
    frequency:     3.2722295431
  - # 2
    frequency:     3.5527294635
  - # 3
    frequency:     4.2109022248
  - # 4
    frequency:     4.6824039725
  - # 5
    frequency:     5.1837245133
  - # 6
    frequency:     5.7265547281
  - # 7
    frequency:     6.4197922148
  - # 8
    frequency:     6.5175864619
  - # 9
    frequency:     6.7327611847

- q-position: [   -0.3333333,    0.1333333,    0.0000000 ]
  distance_from_gamma:  0.112131721
  weight: 1    
  band:
  - # 1
    frequency:     2.9320560018
  - # 2
    frequency:     3.2952298081
  - # 3
    frequency:     4.3210840824
  - # 4
    frequency:     4.8159404106
  - # 5
    frequency:     5.1690631161
  - # 6
    frequency:     5.5868848361
  - # 7
    frequency:     6.4352227679
  - # 8
    frequency:     6.5133278871
  - # 9
    frequency:     6.9557649242

- q-position: [   -0.2666667,    0.1333333,    0.0000000 ]
  distance_from_gamma:  0.094502521
  weight: 1    
  band:
  - # 1
    frequency:     2.5421159791
  - # 2
    frequency:     2.8896651764
  - # 3
    frequency:     4.1758824028
  - # 4
    frequency:     5.0145591432
  - # 5
    frequency:     5.0818851766
  - # 6
    frequency:     5.6312468002
  - # 7
    frequency:     6.4806883411
  - # 8
    frequency:     6.5161381179
  - # 9
    frequency:     7.1392667247

- q-position: [   -0.2000000,    0.1333333,    0.0000000 ]
  distance_from_gamma:  0.077414388
  weight: 1    
  band:
  - # 1
    frequency:     2.1284647058
  - # 2
    frequency:     2.4239167928
  - # 3
    frequency:     3.6964827904
  - # 4
    frequency:     5.1591304585
  - # 5
    frequency:     5.2063601157
  - # 6
    frequency:     5.6842598237
  - # 7
    frequency:     6.5267763008
  - # 8
    frequency:     6.5456267482
  - # 9
    frequency:     7.2131020496

- q-position: [   -0.1333333,    0.1333333,    0.0000000 ]
  distance_from_gamma:  0.061321333
  weight: 1    
  band:
  - # 1
    frequency:     1.7221123298
  - # 2
    frequency:     1.9464046674
  - # 3
    frequency:     3.0654716429
  - # 4
    frequency:     5.3012703996
  - # 5
    frequency:     5.3697092393
  - # 6
    frequency:     5.6872079867
  - # 7
    frequency:     6.5410908769
  - # 8
    frequency:     6.5969859688
  - # 9
    frequency:     7.1653723559

- q-position: [   -0.0666667,    0.1333333,    0.0000000 ]
  distance_from_gamma:  0.047251261
  weight: 1    
  band:
  - # 1
    frequency:     1.3788136247
  - # 2
    frequency:     1.5038292811
  - # 3
    frequency:     2.4205295337
  - # 4
    frequency:     5.4476271701
  - # 5
    frequency:     5.4964373829
  - # 6
    frequency:     5.6459909808
  - # 7
    frequency:     6.5569356927
  - # 8
    frequency:     6.6028004972
  - # 9
    frequency:     7.0444540147

- q-position: [    0.0000000,    0.2000000,    0.0000000 ]
  distance_from_gamma:  0.056327241
  weight: 1    
  band:
  - # 1
    frequency:     1.7354209824
  - # 2
    frequency:     1.7354209824
  - # 3
    frequency:     2.8082723464
  - # 4
    frequency:     5.4885168064
  - # 5
    frequency:     5.4912181169
  - # 6
    frequency:     5.4912181169
  - # 7
    frequency:     6.5637324279
  - # 8
    frequency:     6.5637324279
  - # 9
    frequency:     7.1517722730

- q-position: [    0.0666667,    0.2000000,    0.0000000 ]
  distance_from_gamma:  0.053105832
  weight: 1    
  band:
  - # 1
    frequency:     1.5722674827
  - # 2
    frequency:     1.6305804062
  - # 3
    frequency:     2.7045054129
  - # 4
    frequency:     5.3381976944
  - # 5
    frequency:     5.5613484826
  - # 6
    frequency:     5.5884859954
  - # 7
    frequency:     6.5689091120
  - # 8
    frequency:     6.5903020540
  - # 9
    frequency:     7.1087841399

- q-position: [    0.1333333,    0.2000000,    0.0000000 ]
  distance_from_gamma:  0.056327241
  weight: 1    
  band:
  - # 1
    frequency:     1.5913354580
  - # 2
    frequency:     1.6159603446
  - # 3
    frequency:     2.9366237429
  - # 4
    frequency:     5.1539411593
  - # 5
    frequency:     5.5837830188
  - # 6
    frequency:     5.5997751881
  - # 7
    frequency:     6.6037523221
  - # 8
    frequency:     6.6128308597
  - # 9
    frequency:     7.1222261278

- q-position: [    0.2000000,    0.2000000,    0.0000000 ]
  distance_from_gamma:  0.065041096
  weight: 1    
  band:
  - # 1
    frequency:     1.7826286572
  - # 2
    frequency:     1.7826286572
  - # 3
    frequency:     3.3795987487
  - # 4
    frequency:     4.9354920886
  - # 5
    frequency:     5.5636588397
  - # 6
    frequency:     5.5636588397
  - # 7
    frequency:     6.6191494294
  - # 8
    frequency:     6.6191494294
  - # 9
    frequency:     7.1967647598

- q-position: [    0.2666667,    0.2000000,    0.0000000 ]
  distance_from_gamma:  0.077414388
  weight: 1    
  band:
  - # 1
    frequency:     2.0906924632
  - # 2
    frequency:     2.1132175599
  - # 3
    frequency:     3.8954374906
  - # 4
    frequency:     4.6973406899
  - # 5
    frequency:     5.4989445265
  - # 6
    frequency:     5.5281219438
  - # 7
    frequency:     6.5977582192
  - # 8
    frequency:     6.6070282910
  - # 9
    frequency:     7.2553120540

- q-position: [    0.3333333,    0.2000000,    0.0000000 ]
  distance_from_gamma:  0.091982000
  weight: 1    
  band:
  - # 1
    frequency:     2.4574777142
  - # 2
    frequency:     2.5284564689
  - # 3
    frequency:     4.2556072186
  - # 4
    frequency:     4.5858141440
  - # 5
    frequency:     5.3827717171
  - # 6
    frequency:     5.5167160548
  - # 7
    frequency:     6.5457923059
  - # 8
    frequency:     6.5860725759
  - # 9
    frequency:     7.2281023568

- q-position: [    0.4000000,    0.2000000,    0.0000000 ]
  distance_from_gamma:  0.107858455
  weight: 1    
  band:
  - # 1
    frequency:     2.8404712943
  - # 2
    frequency:     2.9558288572
  - # 3
    frequency:     4.0810377520
  - # 4
    frequency:     4.9077730045
  - # 5
    frequency:     5.2128385150
  - # 6
    frequency:     5.5559466088
  - # 7
    frequency:     6.4759557724
  - # 8
    frequency:     6.5675118564
  - # 9
    frequency:     7.1018833314

- q-position: [    0.4666667,    0.2000000,    0.0000000 ]
  distance_from_gamma:  0.124544217
  weight: 1    
  band:
  - # 1
    frequency:     3.2081578647
  - # 2
    frequency:     3.3323285435
  - # 3
    frequency:     3.8377148601
  - # 4
    frequency:     4.9969572797
  - # 5
    frequency:     5.1362039162
  - # 6
    frequency:     5.6861265988
  - # 7
    frequency:     6.4162340115
  - # 8
    frequency:     6.5548466509
  - # 9
    frequency:     6.9096946822

- q-position: [    0.5333333,    0.2000000,    0.0000000 ]
  distance_from_gamma:  0.141753782
  weight: 1    
  band:
  - # 1
    frequency:     3.4588723393
  - # 2
    frequency:     3.5239813611
  - # 3
    frequency:     3.7792382341
  - # 4
    frequency:     4.7601317536
  - # 5
    frequency:     5.2404236755
  - # 6
    frequency:     5.8192406630
  - # 7
    frequency:     6.3933049691
  - # 8
    frequency:     6.5441570593
  - # 9
    frequency:     6.7314013200

- q-position: [   -0.4000000,    0.2000000,    0.0000000 ]
  distance_from_gamma:  0.141753782
  weight: 1    
  band:
  - # 1
    frequency:     3.2417212059
  - # 2
    frequency:     3.7003159006
  - # 3
    frequency:     3.9964824483
  - # 4
    frequency:     4.5841791551
  - # 5
    frequency:     5.3327382141
  - # 6
    frequency:     5.7871949703
  - # 7
    frequency:     6.3591391405
  - # 8
    frequency:     6.5314510816
  - # 9
    frequency:     6.7276455787

- q-position: [   -0.3333333,    0.2000000,    0.0000000 ]
  distance_from_gamma:  0.124544217
  weight: 1    
  band:
  - # 1
    frequency:     2.9779484550
  - # 2
    frequency:     3.5882176900
  - # 3
    frequency:     4.1948072658
  - # 4
    frequency:     4.6176934244
  - # 5
    frequency:     5.3717648144
  - # 6
    frequency:     5.6386673636
  - # 7
    frequency:     6.3382406587
  - # 8
    frequency:     6.5187798910
  - # 9
    frequency:     6.8791286958

- q-position: [   -0.2666667,    0.2000000,    0.0000000 ]
  distance_from_gamma:  0.107858455
  weight: 1    
  band:
  - # 1
    frequency:     2.6965014933
  - # 2
    frequency:     3.2555019479
  - # 3
    frequency:     4.3038963398
  - # 4
    frequency:     4.8012929884
  - # 5
    frequency:     5.1602670765
  - # 6
    frequency:     5.6638590053
  - # 7
    frequency:     6.3811374384
  - # 8
    frequency:     6.5124487031
  - # 9
    frequency:     7.0445894778

- q-position: [   -0.2000000,    0.2000000,    0.0000000 ]
  distance_from_gamma:  0.091982000
  weight: 1    
  band:
  - # 1
    frequency:     2.4068054459
  - # 2
    frequency:     2.8450047193
  - # 3
    frequency:     4.1393835734
  - # 4
    frequency:     5.0111379918
  - # 5
    frequency:     5.0516332475
  - # 6
    frequency:     5.7047162190
  - # 7
    frequency:     6.4671642369
  - # 8
    frequency:     6.5158631926
  - # 9
    frequency:     7.1633751194

- q-position: [   -0.1333333,    0.2000000,    0.0000000 ]
  distance_from_gamma:  0.077414388
  weight: 1    
  band:
  - # 1
    frequency:     2.1284647058
  - # 2
    frequency:     2.4239167928
  - # 3
    frequency:     3.6964827904
  - # 4
    frequency:     5.1591304585
  - # 5
    frequency:     5.2063601157
  - # 6
    frequency:     5.6842598237
  - # 7
    frequency:     6.5267763008
  - # 8
    frequency:     6.5456267482
  - # 9
    frequency:     7.2131020496

- q-position: [   -0.0666667,    0.2000000,    0.0000000 ]
  distance_from_gamma:  0.065041096
  weight: 1    
  band:
  - # 1
    frequency:     1.8955978921
  - # 2
    frequency:     2.0379979576
  - # 3
    frequency:     3.1968870304
  - # 4
    frequency:     5.3288179185
  - # 5
    frequency:     5.3705971070
  - # 6
    frequency:     5.6084763655
  - # 7
    frequency:     6.5424012638
  - # 8
    frequency:     6.5740541102
  - # 9
    frequency:     7.2003531539

- q-position: [    0.0000000,    0.2666667,    0.0000000 ]
  distance_from_gamma:  0.075102988
  weight: 1    
  band:
  - # 1
    frequency:     2.2731303834
  - # 2
    frequency:     2.2731303834
  - # 3
    frequency:     3.5613483210
  - # 4
    frequency:     5.3578918139
  - # 5
    frequency:     5.3578918139
  - # 6
    frequency:     5.4186575972